 Gaussian 16, Revision A.03,
 Gaussian 16:  ES64L-G16RevA.03 25-Dec-2016

 ----------------------------------------------------------------------
 #p opt freq b3lyp/gen scrf=(solvent=ccl4,pcm) geom=connectivity empiri
 caldispersion=gd3
 ----------------------------------------------------------------------

 -------
 Título
 -------
 Symbolic Z-matrix:
 Charge =  0 Multiplicity = 1

 SCF Done:  E(RB3LYP) =  -615.011747638     A.U. after   12 cycles
 SCF Done:  E(RB3LYP) =  -615.012395294     A.U. after   12 cycles
 SCF Done:  E(RB3LYP) =  -615.012645482     A.U. after   11 cycles
 SCF Done:  E(RB3LYP) =  -614.997800626     A.U. after   13 cycles
 SCF Done:  E(RB3LYP) =  -615.011582487     A.U. after   12 cycles
 SCF Done:  E(RB3LYP) =  -615.012718757     A.U. after   10 cycles
 SCF Done:  E(RB3LYP) =  -615.010455534     A.U. after   13 cycles
 SCF Done:  E(RB3LYP) =  -615.012742027     A.U. after   11 cycles
 SCF Done:  E(RB3LYP) =  -615.012967428     A.U. after   10 cycles
 SCF Done:  E(RB3LYP) =  -615.013005019     A.U. after   10 cycles
 SCF Done:  E(RB3LYP) =  -615.013165759     A.U. after    8 cycles
 SCF Done:  E(RB3LYP) =  -615.013166604     A.U. after    9 cycles
 SCF Done:  E(RB3LYP) =  -615.013164766     A.U. after    9 cycles
 SCF Done:  E(RB3LYP) =  -615.013164816     A.U. after    7 cycles
 SCF Done:  E(RB3LYP) =  -615.013166477     A.U. after    9 cycles
 SCF Done:  E(RB3LYP) =  -615.013164503     A.U. after    9 cycles
 SCF Done:  E(RB3LYP) =  -615.013164832     A.U. after    7 cycles
 SCF Done:  E(RB3LYP) =  -615.013166603     A.U. after    9 cycles
 SCF Done:  E(RB3LYP) =  -615.013164662     A.U. after    9 cycles
 Optimization completed.
    -- Stationary point found.
 Normal termination of Gaussian 16 at Fri Jan  4 12:45:09 2019.

 ------------------------------------------------------------------
 #P Geom=AllCheck Guess=TCheck SCRF=Check GenChk RB3LYP/ChkBas Freq
 ------------------------------------------------------------------

 Structure from the checkpoint file:  "dimero_b3lypd3_n07d_ccl4_of.chk"
 -------
 Título
 -------
 Charge =  0 Multiplicity = 1

                         Standard orientation:
 ---------------------------------------------------------------------
 Center     Atomic      Atomic             Coordinates (Angstroms)
 Number     Number       Type             X           Y           Z
 ---------------------------------------------------------------------
      1          6           0        4.183470    0.516825   -0.622044
      2          6           0        4.001109    1.124945    0.626463
      3          6           0        2.856180    0.823749    1.370464
      4          6           0        1.900549   -0.072180    0.880949
      5          6           0        2.090337   -0.674024   -0.372989
      6          6           0        3.236551   -0.376808   -1.124418
      7          1           0        5.069335    0.740863   -1.211582
      8          1           0        4.740630    1.821158    1.012341
      9          1           0        2.700762    1.285973    2.342472
     10          1           0        3.365213   -0.852212   -2.092897
     11          6           0       -2.112598   -0.588809    0.276971
     12          6           0       -3.480761   -0.821476    0.438587
     13          6           0       -4.392119    0.171420    0.065302
     14          6           0       -3.941857    1.383805   -0.465400
     15          6           0       -2.567712    1.599002   -0.622178
     16          6           0       -1.645959    0.617273   -0.253297
     17          1           0       -3.829715   -1.766819    0.849721
     18          1           0       -5.456489   -0.009105    0.190879
     19          1           0       -4.653181    2.152185   -0.754633
     20          1           0       -2.206514    2.537188   -1.035206
     21          1           0       -0.577843    0.774568   -0.369838
     22          8           0       -1.165554   -1.528584    0.632131
     23          1           0       -1.588481   -2.326960    0.973024
     24          1           0        1.013748   -0.309291    1.462757
     25          8           0        1.197485   -1.552945   -0.908539
     26          1           0        0.403950   -1.617648   -0.346230
 ---------------------------------------------------------------------

 SCF Done:  E(RB3LYP) =  -615.013164662     A.U. after    1 cycles

 The electronic state is 1-A.
 Alpha  occ. eigenvalues --  -19.20780 -19.16789 -10.26307 -10.24474 -10.20212
 Alpha  occ. eigenvalues --  -10.20107 -10.20012 -10.19545 -10.19301 -10.18940
 Alpha  occ. eigenvalues --  -10.18856 -10.18333 -10.18066 -10.18032  -1.08868
 Alpha  occ. eigenvalues --   -1.05449  -0.86552  -0.84938  -0.76389  -0.75481
 Alpha  occ. eigenvalues --   -0.74885  -0.73704  -0.64240  -0.62529  -0.61669
 Alpha  occ. eigenvalues --   -0.60155  -0.56221  -0.54359  -0.51337  -0.50096
 Alpha  occ. eigenvalues --   -0.48076  -0.46471  -0.45200  -0.44050  -0.43809
 Alpha  occ. eigenvalues --   -0.43041  -0.42397  -0.41714  -0.40770  -0.38385
 Alpha  occ. eigenvalues --   -0.37473  -0.36209  -0.35662  -0.35552  -0.33761
 Alpha  occ. eigenvalues --   -0.33424  -0.26904  -0.25618  -0.24548  -0.22489
 Alpha virt. eigenvalues --   -0.02744  -0.01489  -0.01365   0.00050   0.00624
 Alpha virt. eigenvalues --    0.02216   0.03347   0.03707   0.04397   0.04922
 Alpha virt. eigenvalues --    0.05658   0.06221   0.07125   0.07382   0.08049

 Mulliken charges:
               1
     1  C   -0.173159
     2  C   -0.162004
     3  C   -0.146074
     4  C   -0.126036
     5  C    0.449399
     6  C   -0.090040
     7  H    0.109354
     8  H    0.104852
     9  H    0.108088
    10  H    0.112234
    11  C    0.505560
    12  C   -0.112692
    13  C   -0.186249
    14  C   -0.142712
    15  C   -0.154070
    16  C   -0.067804
    17  H    0.104320
    18  H    0.116009
    19  H    0.112144
    20  H    0.118065
    21  H    0.105140
    22  O   -0.669143
    23  H    0.305772
    24  H    0.103236
    25  O   -0.674462
    26  H    0.350271
 Sum of Mulliken charges =   0.00000

 Dipole moment (field-independent basis, Debye):
    X=             -3.2915    Y=             -0.4231    Z=              1.5888  Tot=              3.6793
 Quadrupole moment (field-independent basis, Debye-Ang):
   XX=            -74.7369   YY=            -77.8030   ZZ=            -84.4041
   XY=              7.8051   XZ=             -2.6859   YZ=             -5.1538

  Exact polarizability: 207.534  15.938 159.469  -8.066  -1.070 137.456
 Approx polarizability: 265.113  26.224 228.612 -13.763  -1.347 196.521

                      1                      2                      3
                      A                      A                      A
 Frequencies --     15.6054                19.8554                31.0578
 Red. masses --      4.3402                 5.0600                 4.1507
 Frc consts  --      0.0006                 0.0012                 0.0024
 IR Inten    --      0.2873                 0.2359                 0.9724

                      4                      5                      6
                      A                      A                      A
 Frequencies --     71.2237                76.0216               131.9375
 Red. masses --      5.6145                 5.6984                 5.6546
 Frc consts  --      0.0168                 0.0194                 0.0580
 IR Inten    --      0.1530                 1.0850                 5.3357

                      7                      8                      9
                      A                      A                      A
 Frequencies --    234.1169               238.3731               342.6439
 Red. masses --      5.0353                 4.7088                 1.1411
 Frc consts  --      0.1626                 0.1576                 0.0789
 IR Inten    --      0.3557                 1.9482               106.6104

                     10                     11                     12
                      A                      A                      A
 Frequencies --    418.1271               421.7800               423.4417
 Red. masses --      3.0946                 3.3055                 3.0312
 Frc consts  --      0.3188                 0.3465                 0.3202
 IR Inten    --      4.8586                 2.6429                 0.6156

                     13                     14                     15
                      A                      A                      A
 Frequencies --    436.1583               513.4617               518.1298
 Red. masses --      4.3120                 2.8047                 2.7468
 Frc consts  --      0.4833                 0.4357                 0.4345
 IR Inten    --      2.5292                14.1333                11.3624

                     16                     17                     18
                      A                      A                      A
 Frequencies --    534.0868               536.7064               628.2722
 Red. masses --      7.0740                 7.2390                 6.4490
 Frc consts  --      1.1889                 1.2286                 1.4998
 IR Inten    --      3.1461                 3.1417                 1.2669

                     19                     20                     21
                      A                      A                      A
 Frequencies --    629.4117               694.4812               698.9453
 Red. masses --      6.4213                 1.6216                 1.6452
 Frc consts  --      1.4988                 0.4608                 0.4735
 IR Inten    --      0.5103                42.4720                28.6167

                     22                     23                     24
                      A                      A                      A
 Frequencies --    701.9717               762.5470               764.6188
 Red. masses --      1.6170                 1.6410                 1.6251
 Frc consts  --      0.4695                 0.5622                 0.5598
 IR Inten    --    106.3696                81.8440                43.6992

                     25                     26                     27
                      A                      A                      A
 Frequencies --    822.5733               828.9051               831.5775
 Red. masses --      5.0406                 2.3578                 1.8236
 Frc consts  --      2.0095                 0.9545                 0.7430
 IR Inten    --     40.3522                14.1448                12.7332

                     28                     29                     30
                      A                      A                      A
 Frequencies --    837.6765               897.1713               901.8955
 Red. masses --      1.2741                 1.4732                 1.4385
 Frc consts  --      0.5267                 0.6987                 0.6894
 IR Inten    --      4.5778                11.5021                 3.8605

                     31                     32                     33
                      A                      A                      A
 Frequencies --    971.8111               973.6650               985.9395
 Red. masses --      1.3461                 1.3452                 1.2543
 Frc consts  --      0.7490                 0.7514                 0.7184
 IR Inten    --      0.3669                 0.0660                 0.3747

                     34                     35                     36
                      A                      A                      A
 Frequencies --    992.0923              1007.9138              1010.7077
 Red. masses --      1.2683                 6.0335                 6.0646
 Frc consts  --      0.7355                 3.6113                 3.6501
 IR Inten    --      0.0189                 3.5810                 1.1274

                     37                     38                     39
                      A                      A                      A
 Frequencies --   1043.4299              1045.5282              1097.9991
 Red. masses --      2.0783                 2.1270                 1.5371
 Frc consts  --      1.3332                 1.3699                 1.0918
 IR Inten    --     11.5512                 8.8755                10.1812

                     40                     41                     42
                      A                      A                      A
 Frequencies --   1101.2608              1181.0693              1184.2788
 Red. masses --      1.5657                 1.1047                 1.1299
 Frc consts  --      1.1188                 0.9079                 0.9336
 IR Inten    --     15.2777                 4.2597                14.8051

                     43                     44                     45
                      A                      A                      A
 Frequencies --   1193.9135              1194.5438              1202.9380
 Red. masses --      1.1301                 1.1659                 1.2391
 Frc consts  --      0.9491                 0.9802                 1.0564
 IR Inten    --      6.9702                47.9218               146.5462

                     46                     47                     48
                      A                      A                      A
 Frequencies --   1247.6160              1260.5569              1289.6432
 Red. masses --      1.7226                 3.0775                 3.1833
 Frc consts  --      1.5797                 2.8812                 3.1194
 IR Inten    --    142.4160               119.8014               103.6764

                     49                     50                     51
                      A                      A                      A
 Frequencies --   1358.1531              1359.9556              1370.1156
 Red. masses --      2.4631                 3.0789                 1.5277
 Frc consts  --      2.6769                 3.3550                 1.6897
 IR Inten    --      7.5787                 1.4845                29.7337

                     52                     53                     54
                      A                      A                      A
 Frequencies --   1393.8560              1502.8798              1503.9467
 Red. masses --      1.5367                 2.2531                 2.2213
 Frc consts  --      1.7590                 2.9983                 2.9601
 IR Inten    --     47.2748                29.2116                41.6853

                     55                     56                     57
                      A                      A                      A
 Frequencies --   1526.4927              1532.3531              1633.6899
 Red. masses --      2.2997                 2.2959                 5.5469
 Frc consts  --      3.1573                 3.1762                 8.7225
 IR Inten    --    102.6053                48.5772                66.0524

                     58                     59                     60
                      A                      A                      A
 Frequencies --   1642.2415              1648.3283              1651.7892
 Red. masses --      5.7714                 5.6623                 5.3827
 Frc consts  --      9.1708                 9.0642                 8.6528
 IR Inten    --     77.2046                33.3793                60.7254

                     61                     62                     63
                      A                      A                      A
 Frequencies --   3171.6965              3177.8170              3184.6027
 Red. masses --      1.0898                 1.0857                 1.0891
 Frc consts  --      6.4592                 6.4600                 6.5074
 IR Inten    --     10.3188                 2.9492                10.4611

                     64                     65                     66
                      A                      A                      A
 Frequencies --   3188.6611              3197.0915              3197.9653
 Red. masses --      1.0875                 1.0917                 1.0918
 Frc consts  --      6.5145                 6.5747                 6.5785
 IR Inten    --      0.2918                 6.4672                27.9398

                     67                     68                     69
                      A                      A                      A
 Frequencies --   3202.4973              3208.4735              3209.2354
 Red. masses --      1.0942                 1.0974                 1.0951
 Frc consts  --      6.6122                 6.6560                 6.6453
 IR Inten    --     19.7870                 5.0785                13.8550

                     70                     71                     72
                      A                      A                      A
 Frequencies --   3215.4540              3620.5706              3818.7286
 Red. masses --      1.0969                 1.0683                 1.0667
 Frc consts  --      6.6816                 8.2505                 9.1650
 IR Inten    --      5.0961               941.2475               105.1050

 - Thermochemistry -
 -------------------
 Temperature   298.150 Kelvin.  Pressure   1.00000 Atm.
 Atom     1 has atomic number  6 and mass  12.00000

 Molecular mass:   188.08373 amu.
 Principal axes and moments of inertia in atomic units:
                           1         2         3
     Eigenvalues --  1132.198756230.553776597.72141
           X            0.99999   0.00448  -0.00046
           Y           -0.00449   0.99971  -0.02357
           Z            0.00036   0.02357   0.99972
 This molecule is an asymmetric top.
 Rotational symmetry number  1.
 Warning -- assumption of classical behavior for rotation
           may cause significant error
 Rotational temperatures (Kelvin)      0.07650     0.01390     0.01313
 Rotational constants (GHZ):           1.59401     0.28966     0.27354
 Zero-point vibrational energy     553059.2 (Joules/Mol)
                                  132.18432 (Kcal/Mol)
 Warning -- explicit consideration of  17 degrees of freedom as
           vibrations may cause significant error
 Vibrational temperatures:     22.45    28.57    44.69   102.47   109.38
          (Kelvin)            189.83   336.84   342.97   492.99   601.59
                              606.85   609.24   627.53   738.76   745.47
                              768.43   772.20   903.94   905.58   999.20
                             1005.63  1009.98  1097.14  1100.12  1183.50
                             1192.61  1196.45  1205.23  1290.83  1297.63
                             1398.22  1400.89  1418.55  1427.40  1450.16
                             1454.18  1501.26  1504.28  1579.78  1584.47
                             1699.30  1703.91  1717.78  1718.68  1730.76
                             1795.04  1813.66  1855.51  1954.08  1956.67
                             1971.29  2005.45  2162.31  2163.84  2196.28
                             2204.71  2350.52  2362.82  2371.58  2376.56
                             4563.36  4572.17  4581.93  4587.77  4599.90
                             4601.16  4607.68  4616.28  4617.37  4626.32
                             5209.19  5494.30

 Zero-point correction=                           0.210649 (Hartree/Particle)
 Thermal correction to Energy=                    0.223490
 Thermal correction to Enthalpy=                  0.224435
 Thermal correction to Gibbs Free Energy=         0.167571
 Sum of electronic and zero-point Energies=           -614.802516
 Sum of electronic and thermal Energies=              -614.789674
 Sum of electronic and thermal Enthalpies=            -614.788730
 Sum of electronic and thermal Free Energies=         -614.845594

                     E (Thermal)             CV                S
                      KCal/Mol        Cal/Mol-Kelvin    Cal/Mol-Kelvin
 Total                  140.242             48.679            119.679
 Electronic               0.000              0.000              0.000
 Translational            0.889              2.981             41.601
 Rotational               0.889              2.981             32.209
 Vibrational            138.465             42.718             45.869
 Vibration     1          0.593              1.986              7.127
 Vibration     2          0.593              1.986              6.649
 Vibration     3          0.594              1.983              5.761
 Vibration     4          0.598              1.968              4.119
 Vibration     5          0.599              1.965              3.991
 Vibration     6          0.612              1.921              2.918
 Vibration     7          0.654              1.789              1.847
 Vibration     8          0.656              1.782              1.815
 Vibration     9          0.722              1.590              1.200
 Vibration    10          0.781              1.431              0.898
 Vibration    11          0.784              1.423              0.886
 Vibration    12          0.786              1.419              0.880
 Vibration    13          0.797              1.391              0.839
 Vibration    14          0.869              1.220              0.625
 Vibration    15          0.873              1.210              0.614
 Vibration    16          0.889              1.175              0.578
 Vibration    17          0.892              1.169              0.572

 Optimization completed.
    -- Stationary point found.
 Normal termination of Gaussian 16 at Fri Jan  4 13:12:18 2019.
