 Gaussian 16, Revision A.03,
 Gaussian 16:  ES64L-G16RevA.03 25-Dec-2016

 ---------------------------------------------------------------
 #p opt freq b3lyp/gen geom=connectivity empiricaldispersion=gd3
 ---------------------------------------------------------------

 -------
 Título
 -------
 Symbolic Z-matrix:
 Charge =  0 Multiplicity = 1

 SCF Done:  E(RB3LYP) =  -615.007182850     A.U. after   15 cycles
 SCF Done:  E(RB3LYP) =  -615.007765877     A.U. after   26 cycles
 SCF Done:  E(RB3LYP) =  -615.008056214     A.U. after   15 cycles
 SCF Done:  E(RB3LYP) =  -614.978250202     A.U. after   17 cycles
 SCF Done:  E(RB3LYP) =  -615.005410404     A.U. after   16 cycles
 SCF Done:  E(RB3LYP) =  -615.008117550     A.U. after   14 cycles
 SCF Done:  E(RB3LYP) =  -615.003901692     A.U. after   19 cycles
 SCF Done:  E(RB3LYP) =  -615.008172037     A.U. after   18 cycles
 SCF Done:  E(RB3LYP) =  -615.008365049     A.U. after   16 cycles
 SCF Done:  E(RB3LYP) =  -615.008509087     A.U. after   13 cycles
 SCF Done:  E(RB3LYP) =  -615.008801717     A.U. after   14 cycles
 SCF Done:  E(RB3LYP) =  -615.008809116     A.U. after   13 cycles
 SCF Done:  E(RB3LYP) =  -615.008809622     A.U. after   12 cycles
 SCF Done:  E(RB3LYP) =  -615.008809720     A.U. after    7 cycles
 SCF Done:  E(RB3LYP) =  -615.008811392     A.U. after   11 cycles
 SCF Done:  E(RB3LYP) =  -615.008811573     A.U. after    8 cycles
 SCF Done:  E(RB3LYP) =  -615.008811683     A.U. after    8 cycles
 SCF Done:  E(RB3LYP) =  -615.008811754     A.U. after    7 cycles
 SCF Done:  E(RB3LYP) =  -615.008811770     A.U. after    7 cycles
 Optimization completed.
    -- Stationary point found.
 Normal termination of Gaussian 16 at Tue Dec 18 14:17:42 2018.

 ------------------------------------------------------------------
 #P Geom=AllCheck Guess=TCheck SCRF=Check GenChk RB3LYP/ChkBas Freq
 ------------------------------------------------------------------

 Structure from the checkpoint file:  "dimero_b3lypd3_n07d_gas_of_sincounter.chk"
 -------
 Título
 -------
 Charge =  0 Multiplicity = 1

                         Standard orientation:
 ---------------------------------------------------------------------
 Center     Atomic      Atomic             Coordinates (Angstroms)
 Number     Number       Type             X           Y           Z
 ---------------------------------------------------------------------
      1          6           0        4.064852    0.595992   -0.402834
      2          6           0        3.592808    1.481329    0.573931
      3          6           0        2.349917    1.241772    1.166847
      4          6           0        1.582726    0.134106    0.794882
      5          6           0        2.063315   -0.747050   -0.185335
      6          6           0        3.308793   -0.512542   -0.784745
      7          1           0        5.030125    0.769475   -0.872571
      8          1           0        4.185034    2.343730    0.867131
      9          1           0        1.968229    1.920763    1.925706
     10          1           0        3.662177   -1.206915   -1.541778
     11          6           0       -2.057097   -0.743869    0.169450
     12          6           0       -3.243541   -0.465450    0.852108
     13          6           0       -4.008083    0.642042    0.472263
     14          6           0       -3.589078    1.464793   -0.576579
     15          6           0       -2.396675    1.171807   -1.248061
     16          6           0       -1.624770    0.068211   -0.882258
     17          1           0       -3.567167   -1.105931    1.670808
     18          1           0       -4.932017    0.858388    1.002131
     19          1           0       -4.184304    2.325569   -0.867596
     20          1           0       -2.060277    1.806711   -2.063405
     21          1           0       -0.696404   -0.168151   -1.393418
     22          8           0       -1.256781   -1.817446    0.504259
     23          1           0       -1.647104   -2.322968    1.227019
     24          1           0        0.614886   -0.047048    1.254472
     25          8           0        1.364047   -1.840665   -0.600143
     26          1           0        0.509692   -1.895569   -0.139439
 ---------------------------------------------------------------------

 SCF Done:  E(RB3LYP) =  -615.008811770     A.U. after    1 cycles

 The electronic state is 1-A.
 Alpha  occ. eigenvalues --  -19.21199 -19.16417 -10.26635 -10.23974 -10.20608
 Alpha  occ. eigenvalues --  -10.20553 -10.20302 -10.19802 -10.19640 -10.18503
 Alpha  occ. eigenvalues --  -10.18396 -10.17936 -10.17588 -10.17579  -1.09295
 Alpha  occ. eigenvalues --   -1.05098  -0.86901  -0.84489  -0.76748  -0.75851
 Alpha  occ. eigenvalues --   -0.74448  -0.73277  -0.64683  -0.62494  -0.61691
 Alpha  occ. eigenvalues --   -0.59742  -0.56666  -0.54021  -0.51693  -0.49840
 Alpha  occ. eigenvalues --   -0.48332  -0.46061  -0.45579  -0.44180  -0.43928
 Alpha  occ. eigenvalues --   -0.43294  -0.42112  -0.41694  -0.40268  -0.38256
 Alpha  occ. eigenvalues --   -0.37665  -0.36110  -0.35888  -0.35669  -0.33202
 Alpha  occ. eigenvalues --   -0.33144  -0.27210  -0.25184  -0.24750  -0.21974
 Alpha virt. eigenvalues --   -0.03090  -0.01662  -0.00889  -0.00430   0.00590
 Alpha virt. eigenvalues --    0.01806   0.02998   0.03624   0.04190   0.04587
 Alpha virt. eigenvalues --    0.05562   0.06178   0.06941   0.07377   0.07953

 Mulliken charges:
               1
     1  C   -0.160042
     2  C   -0.153735
     3  C   -0.138050
     4  C   -0.134445
     5  C    0.464550
     6  C   -0.062016
     7  H    0.101439
     8  H    0.097528
     9  H    0.099769
    10  H    0.108048
    11  C    0.528617
    12  C   -0.124433
    13  C   -0.173754
    14  C   -0.137139
    15  C   -0.144986
    16  C   -0.075087
    17  H    0.092110
    18  H    0.108584
    19  H    0.106022
    20  H    0.112192
    21  H    0.113366
    22  O   -0.675839
    23  H    0.293698
    24  H    0.087834
    25  O   -0.670220
    26  H    0.335989
 Sum of Mulliken charges =  -0.00000

 Dipole moment (field-independent basis, Debye):
    X=             -3.0535    Y=              0.2410    Z=              1.6225  Tot=              3.4662
 Quadrupole moment (field-independent basis, Debye-Ang):
   XX=            -77.8807   YY=            -81.0357   ZZ=            -80.9681
   XY=              4.0620   XZ=             -6.3197   YZ=             -5.5275

  Exact polarizability: 173.998  -0.502 143.351 -20.606  -0.329 124.095
 Approx polarizability: 246.269  -1.400 238.978 -43.267   0.686 205.348

                      1                      2                      3
                      A                      A                      A
 Frequencies --     11.4421                20.4825                27.7833
 Red. masses --      4.8395                 4.1252                 4.4030
 Frc consts  --      0.0004                 0.0010                 0.0020
 IR Inten    --      0.2552                 0.1206                 0.7199

                      4                      5                      6
                      A                      A                      A
 Frequencies --     67.5009                75.7702               125.8662
 Red. masses --      5.7078                 5.6869                 5.7784
 Frc consts  --      0.0153                 0.0192                 0.0539
 IR Inten    --      0.6344                 0.8681                 3.2586

                      7                      8                      9
                      A                      A                      A
 Frequencies --    233.5624               236.2912               292.7218
 Red. masses --      4.9388                 4.6199                 1.1070
 Frc consts  --      0.1587                 0.1520                 0.0559
 IR Inten    --      0.4156                 0.5013                97.6533

                     10                     11                     12
                      A                      A                      A
 Frequencies --    418.7801               420.0183               422.3679
 Red. masses --      3.5539                 3.1622                 3.0229
 Frc consts  --      0.3672                 0.3287                 0.3177
 IR Inten    --      2.1754                 2.1468                 0.2298

                     13                     14                     15
                      A                      A                      A
 Frequencies --    434.7970               513.3365               517.0564
 Red. masses --      4.2103                 2.8005                 2.7325
 Frc consts  --      0.4690                 0.4348                 0.4304
 IR Inten    --      0.6538                12.3138                 9.3769

                     16                     17                     18
                      A                      A                      A
 Frequencies --    534.7001               537.3220               629.2174
 Red. masses --      7.2256                 7.1852                 6.4340
 Frc consts  --      1.2172                 1.2222                 1.5008
 IR Inten    --      1.6450                 2.8150                 1.2334

                     19                     20                     21
                      A                      A                      A
 Frequencies --    630.1363               684.6210               695.4918
 Red. masses --      6.4373                 1.1105                 2.1820
 Frc consts  --      1.5060                 0.3067                 0.6219
 IR Inten    --      0.4926                86.7822                28.2343

                     22                     23                     24
                      A                      A                      A
 Frequencies --    699.3371               762.2375               763.7901
 Red. masses --      1.9796                 1.6425                 1.6547
 Frc consts  --      0.5704                 0.5623                 0.5687
 IR Inten    --     52.6095                65.2433                40.0259

                     25                     26                     27
                      A                      A                      A
 Frequencies --    824.5268               827.3570               831.0854
 Red. masses --      4.9606                 1.2812                 5.3439
 Frc consts  --      1.9870                 0.5167                 2.1747
 IR Inten    --     27.4599                 2.6699                16.3091

                     28                     29                     30
                      A                      A                      A
 Frequencies --    833.7916               894.4120               900.1137
 Red. masses --      1.2793                 1.4863                 1.4366
 Frc consts  --      0.5240                 0.7005                 0.6858
 IR Inten    --      4.6832                 9.9547                 4.1296

                     31                     32                     33
                      A                      A                      A
 Frequencies --    968.3226               971.0605               983.6055
 Red. masses --      1.3441                 1.3466                 1.2556
 Frc consts  --      0.7425                 0.7481                 0.7157
 IR Inten    --      0.2216                 0.0891                 0.2483

                     34                     35                     36
                      A                      A                      A
 Frequencies --    991.7396              1009.3691              1011.9321
 Red. masses --      1.2736                 6.0005                 6.0789
 Frc consts  --      0.7380                 3.6019                 3.6676
 IR Inten    --      0.2280                 2.5938                 0.4823

                     37                     38                     39
                      A                      A                      A
 Frequencies --   1044.4645              1046.7936              1099.0391
 Red. masses --      2.0689                 2.1151                 1.5362
 Frc consts  --      1.3298                 1.3655                 1.0932
 IR Inten    --      6.8520                 6.5133                 5.7645

                     40                     41                     42
                      A                      A                      A
 Frequencies --   1102.4815              1183.2993              1186.6450
 Red. masses --      1.5646                 1.1070                 1.1356
 Frc consts  --      1.1205                 0.9132                 0.9422
 IR Inten    --     12.2622                 2.5875                10.0574

                     43                     44                     45
                      A                      A                      A
 Frequencies --   1195.4654              1195.8695              1208.7453
 Red. masses --      1.1319                 1.1468                 1.2224
 Frc consts  --      0.9531                 0.9663                 1.0523
 IR Inten    --      6.9535                20.2893                97.5961

                     46                     47                     48
                      A                      A                      A
 Frequencies --   1242.8884              1263.7530              1292.9356
 Red. masses --      1.5276                 3.5809                 3.3817
 Frc consts  --      1.3903                 3.3695                 3.3307
 IR Inten    --    104.4933               110.0625                85.7863

                     49                     50                     51
                      A                      A                      A
 Frequencies --   1359.0513              1361.0573              1371.4568
 Red. masses --      2.3763                 2.8337                 1.5966
 Frc consts  --      2.5860                 3.0929                 1.7694
 IR Inten    --      5.7043                 0.8128                25.5681

                     52                     53                     54
                      A                      A                      A
 Frequencies --   1389.0505              1504.0041              1505.3365
 Red. masses --      1.6076                 2.2440                 2.2575
 Frc consts  --      1.8275                 2.9907                 3.0141
 IR Inten    --     38.1596                28.5586                20.9879

                     55                     56                     57
                      A                      A                      A
 Frequencies --   1527.9332              1534.0139              1636.3648
 Red. masses --      2.3099                 2.3606                 5.5810
 Frc consts  --      3.1772                 3.2729                 8.8049
 IR Inten    --     63.0416                52.6054                37.3638

                     58                     59                     60
                      A                      A                      A
 Frequencies --   1644.9078              1650.6484              1654.3092
 Red. masses --      5.8123                 5.6645                 5.4869
 Frc consts  --      9.2658                 9.0933                 8.8473
 IR Inten    --     62.2112                20.4788                61.8070

                     61                     62                     63
                      A                      A                      A
 Frequencies --   3168.3994              3176.6783              3183.9494
 Red. masses --      1.0893                 1.0855                 1.0891
 Frc consts  --      6.4430                 6.4542                 6.5051
 IR Inten    --      9.9302                 2.2223                 8.6335

                     64                     65                     66
                      A                      A                      A
 Frequencies --   3188.3101              3196.9291              3198.6441
 Red. masses --      1.0874                 1.0918                 1.0915
 Frc consts  --      6.5129                 6.5744                 6.5799
 IR Inten    --      0.3437                10.1084                21.7210

                     67                     68                     69
                      A                      A                      A
 Frequencies --   3203.8613              3209.1043              3209.4315
 Red. masses --      1.0941                 1.0973                 1.0950
 Frc consts  --      6.6169                 6.6578                 6.6456
 IR Inten    --     16.7758                 4.0406                10.2550

                     70                     71                     72
                      A                      A                      A
 Frequencies --   3216.3061              3673.6056              3835.1882
 Red. masses --      1.0967                 1.0678                 1.0666
 Frc consts  --      6.6845                 8.4901                 9.2429
 IR Inten    --      2.4811               635.9001                79.4226

 - Thermochemistry -
 -------------------
 Temperature   298.150 Kelvin.  Pressure   1.00000 Atm.
 Atom     1 has atomic number  6 and mass  12.00000

 Molecular mass:   188.08373 amu.
 Principal axes and moments of inertia in atomic units:
                           1         2         3
     Eigenvalues --  1308.821915529.636786033.16579
           X            0.99999   0.00179  -0.00453
           Y           -0.00186   0.99988  -0.01558
           Z            0.00450   0.01559   0.99987
 This molecule is an asymmetric top.
 Rotational symmetry number  1.
 Warning -- assumption of classical behavior for rotation
           may cause significant error
 Rotational temperatures (Kelvin)      0.06618     0.01566     0.01436
 Rotational constants (GHZ):           1.37891     0.32638     0.29914
 Zero-point vibrational energy     553050.8 (Joules/Mol)
                                  132.18230 (Kcal/Mol)
 Warning -- explicit consideration of  17 degrees of freedom as
           vibrations may cause significant error
 Vibrational temperatures:     16.46    29.47    39.97    97.12   109.02
          (Kelvin)            181.09   336.04   339.97   421.16   602.53
                              604.31   607.69   625.58   738.58   743.93
                              769.31   773.09   905.30   906.63   985.02
                             1000.66  1006.19  1096.69  1098.92  1186.31
                             1190.38  1195.75  1199.64  1286.86  1295.06
                             1393.20  1397.14  1415.19  1426.89  1452.26
                             1455.94  1502.75  1506.10  1581.27  1586.22
                             1702.50  1707.32  1720.01  1720.59  1739.11
                             1788.24  1818.26  1860.25  1955.37  1958.26
                             1973.22  1998.53  2163.93  2165.84  2198.36
                             2207.10  2354.36  2366.66  2374.91  2380.18
                             4558.62  4570.53  4580.99  4587.27  4599.67
                             4602.14  4609.64  4617.19  4617.66  4627.55
                             5285.50  5517.98

 Zero-point correction=                           0.210646 (Hartree/Particle)
 Thermal correction to Energy=                    0.223595
 Thermal correction to Enthalpy=                  0.224540
 Thermal correction to Gibbs Free Energy=         0.167093
 Sum of electronic and zero-point Energies=           -614.798166
 Sum of electronic and thermal Energies=              -614.785216
 Sum of electronic and thermal Enthalpies=            -614.784272
 Sum of electronic and thermal Free Energies=         -614.841719

                     E (Thermal)             CV                S
                      KCal/Mol        Cal/Mol-Kelvin    Cal/Mol-Kelvin
 Total                  140.308             48.830            120.906
 Electronic               0.000              0.000              0.000
 Translational            0.889              2.981             41.601
 Rotational               0.889              2.981             32.146
 Vibrational            138.531             42.868             47.159
 Vibration     1          0.593              1.987              7.743
 Vibration     2          0.593              1.986              6.587
 Vibration     3          0.593              1.984              5.982
 Vibration     4          0.598              1.970              4.225
 Vibration     5          0.599              1.965              3.998
 Vibration     6          0.611              1.927              3.008
 Vibration     7          0.654              1.790              1.851
 Vibration     8          0.655              1.785              1.831
 Vibration     9          0.688              1.687              1.458
 Vibration    10          0.782              1.429              0.896
 Vibration    11          0.783              1.427              0.892
 Vibration    12          0.785              1.422              0.884
 Vibration    13          0.795              1.394              0.843
 Vibration    14          0.868              1.220              0.626
 Vibration    15          0.872              1.212              0.617
 Vibration    16          0.890              1.173              0.577
 Vibration    17          0.892              1.167              0.571

                           ! Non-Optimized Parameters !
 Normal termination of Gaussian 16 at Tue Dec 18 14:50:05 2018.
