 Gaussian 16, Revision A.03,
 Gaussian 16:  ES64L-G16RevA.03 25-Dec-2016

 ----------------------------------------------------------------------
 #p opt freq b3lyp/aug-cc-pvtz scrf=(solvent=ccl4,pcm) geom=connectivit
 y empiricaldispersion=gd3
 ----------------------------------------------------------------------

 -------
 TÃ­tulo
 -------
 Symbolic Z-matrix:
 Charge =  0 Multiplicity = 1

 SCF Done:  E(RB3LYP) =  -922.827082180     A.U. after   12 cycles
 SCF Done:  E(RB3LYP) =  -922.829003945     A.U. after   10 cycles
 SCF Done:  E(RB3LYP) =  -922.829120352     A.U. after    9 cycles
 SCF Done:  E(RB3LYP) =  -922.829175225     A.U. after    9 cycles
 SCF Done:  E(RB3LYP) =  -922.829223717     A.U. after    9 cycles
 SCF Done:  E(RB3LYP) =  -922.829241313     A.U. after    8 cycles
 SCF Done:  E(RB3LYP) =  -922.829237152     A.U. after    8 cycles
 SCF Done:  E(RB3LYP) =  -922.829240164     A.U. after    8 cycles
 SCF Done:  E(RB3LYP) =  -922.829230607     A.U. after    8 cycles
 SCF Done:  E(RB3LYP) =  -922.829242694     A.U. after    8 cycles
 SCF Done:  E(RB3LYP) =  -922.829232721     A.U. after    7 cycles
 SCF Done:  E(RB3LYP) =  -922.829252492     A.U. after    8 cycles
 SCF Done:  E(RB3LYP) =  -922.829246072     A.U. after    7 cycles
 SCF Done:  E(RB3LYP) =  -922.829244193     A.U. after    7 cycles
 SCF Done:  E(RB3LYP) =  -922.829250290     A.U. after    7 cycles
 SCF Done:  E(RB3LYP) =  -922.829242294     A.U. after    8 cycles
 SCF Done:  E(RB3LYP) =  -922.829233253     A.U. after    7 cycles
 SCF Done:  E(RB3LYP) =  -922.829234337     A.U. after    8 cycles
 SCF Done:  E(RB3LYP) =  -922.829234451     A.U. after    7 cycles
 Optimization completed.
    -- Stationary point found.

 The electronic state is 1-A.
 Alpha  occ. eigenvalues --  -19.17049 -19.17046 -19.17015 -10.24635 -10.24634
 Alpha  occ. eigenvalues --  -10.24620 -10.18617 -10.18616 -10.18605 -10.18582
 Alpha  occ. eigenvalues --  -10.18581 -10.18570 -10.18165 -10.18164 -10.18152
 Alpha  occ. eigenvalues --  -10.18106 -10.18106 -10.18091 -10.17787 -10.17785
 Alpha  occ. eigenvalues --  -10.17773  -1.08149  -1.06771  -1.06750  -0.86368
 Alpha  occ. eigenvalues --   -0.86185  -0.86175  -0.75979  -0.75971  -0.75911
 Alpha  occ. eigenvalues --   -0.75236  -0.74774  -0.74762  -0.63689  -0.63435
 Alpha  occ. eigenvalues --   -0.63422  -0.61625  -0.61169  -0.61156  -0.55923
 Alpha  occ. eigenvalues --   -0.55423  -0.55405  -0.50965  -0.50955  -0.50920
 Alpha  occ. eigenvalues --   -0.47882  -0.47697  -0.47688  -0.44841  -0.44794
 Alpha  occ. eigenvalues --   -0.44785  -0.44064  -0.43707  -0.43698  -0.42739
 Alpha  occ. eigenvalues --   -0.42322  -0.42302  -0.40474  -0.40470  -0.39707
 Alpha  occ. eigenvalues --   -0.37205  -0.36978  -0.36971  -0.35676  -0.35327
 Alpha  occ. eigenvalues --   -0.35317  -0.34763  -0.34757  -0.34738  -0.27079
 Alpha  occ. eigenvalues --   -0.26535  -0.26529  -0.24492  -0.23927  -0.23914
 Alpha virt. eigenvalues --   -0.03182  -0.02149  -0.02144  -0.01222  -0.01111
 Alpha virt. eigenvalues --   -0.01104  -0.01040  -0.00233  -0.00231   0.00088
 Alpha virt. eigenvalues --    0.01266   0.01268   0.01543   0.01954   0.01959

 Mulliken charges:
               1
     1  C   -0.374316
     2  C   -0.335506
     3  C   -0.492714
     4  C   -0.712998
     5  C    1.015721
     6  C   -0.700368
     7  H    0.328970
     8  H    0.418913
     9  H    0.350280
    10  H    0.319592
    11  H    0.668379
    12  O   -0.802576
    13  H    0.318569
    14  C   -0.371171
    15  C   -0.336344
    16  C   -0.491076
    17  C   -0.712339
    18  C    1.014156
    19  C   -0.699133
    20  H    0.328885
    21  H    0.419489
    22  H    0.350729
    23  H    0.317624
    24  C    1.014031
    25  C   -0.712797
    26  C   -0.490936
    27  C   -0.335773
    28  C   -0.375203
    29  C   -0.699551
    30  H    0.666045
    31  H    0.351384
    32  H    0.419363
    33  H    0.328615
    34  H    0.318440
    35  O   -0.801178
    36  H    0.318416
    37  H    0.667832
    38  O   -0.803742
    39  H    0.312287
 Sum of Mulliken charges =  -0.00000

 Dipole moment (field-independent basis, Debye):
    X=             -0.0225    Y=              0.0078    Z=             -2.2829  Tot=              2.2831
 Quadrupole moment (field-independent basis, Debye-Ang):
   XX=           -121.1997   YY=           -121.2039   ZZ=           -124.2644
   XY=              0.0094   XZ=              0.0040   YZ=              0.0257

 Normal termination of Gaussian 16 at Sat Feb 23 17:47:59 2019.

 ----------------------------------------------------------------------
 #P Geom=AllCheck Guess=TCheck SCRF=Check GenChk RB3LYP/Aug-CC-pVTZ Fre
 q
 ----------------------------------------------------------------------

 Structure from the checkpoint file:  "trimero_jaula_b3lypd3_augccpvtz_ccl4_of_pcm.chk"
 -------
 TÃ­tulo
 -------
 Charge =  0 Multiplicity = 1

                         Standard orientation:
 ---------------------------------------------------------------------
 Center     Atomic      Atomic             Coordinates (Angstroms)
 Number     Number       Type             X           Y           Z
 ---------------------------------------------------------------------
      1          6           0        4.084329    0.819409   -0.530613
      2          6           0        3.796160   -0.057867   -1.572161
      3          6           0        2.775348   -0.989367   -1.416538
      4          6           0        2.042323   -1.048261   -0.236623
      5          6           0        2.338313   -0.163220    0.796461
      6          6           0        3.360430    0.770730    0.653887
      7          1           0        4.876757    1.547717   -0.638372
      8          1           0        4.360636   -0.015597   -2.493008
      9          1           0        2.538637   -1.675449   -2.218446
     10          1           0        3.572660    1.447615    1.469862
     11          1           0        1.240184   -1.765292   -0.126944
     12          8           0        1.628778   -0.142533    1.972460
     13          1           0        0.939033   -0.830568    1.976991
     14          6           0       -2.754354    3.118640   -0.527890
     15          6           0       -1.854263    3.304784   -1.573211
     16          6           0       -0.536004    2.889189   -1.420288
     17          6           0       -0.113647    2.289370   -0.239223
     18          6           0       -1.024362    2.106352    0.797573
     19          6           0       -2.345415    2.521643    0.657798
     20          1           0       -3.782150    3.438660   -0.633642
     21          1           0       -2.176863    3.768253   -2.494893
     22          1           0        0.173621    3.024853   -2.225162
     23          1           0       -3.034742    2.369204    1.476689
     24          6           0       -1.309571   -1.936553    0.799068
     25          6           0       -1.932250   -1.241954   -0.234278
     26          6           0       -2.249625   -1.910348   -1.411341
     27          6           0       -1.950682   -3.259931   -1.563759
     28          6           0       -1.330456   -3.943700   -0.521988
     29          6           0       -1.008838   -3.288326    0.659819
     30          1           0       -2.153669   -0.188858   -0.126928
     31          1           0       -2.728904   -1.365760   -2.213536
     32          1           0       -2.197737   -3.773163   -2.482416
     33          1           0       -1.093759   -4.993842   -0.627538
     34          1           0       -0.525060   -3.806932    1.475897
     35          8           0       -0.934840   -1.327663    1.972189
     36          1           0       -1.191297   -0.388036    1.976169
     37          1           0        0.909099    1.954877   -0.131605
     38          8           0       -0.682781    1.486206    1.974901
     39          1           0        0.259679    1.240692    1.980325
 ---------------------------------------------------------------------

 SCF Done:  E(RB3LYP) =  -922.829234451     A.U. after    1 cycles

 Isotropic polarizability for W=    0.000000      254.57 Bohr**3.
 End of Minotr F.D. properties file   721 does not exist.

 Error termination via Lnk1e at Tue Apr 30 22:48:23 2019.
