 Gaussian 16, Revision A.03,
 Gaussian 16:  ES64L-G16RevA.03 25-Dec-2016

 ---------------------------------------------------------------
 #p opt freq b3lyp/gen geom=connectivity empiricaldispersion=gd3
 ---------------------------------------------------------------

 -------------------
 Title Card Required
 -------------------
 Symbolic Z-matrix:
 Charge =  0 Multiplicity = 1

 SCF Done:  E(RB3LYP) =  -307.494417455     A.U. after   13 cycles
 SCF Done:  E(RB3LYP) =  -307.497711204     A.U. after   11 cycles
 SCF Done:  E(RB3LYP) =  -307.497963105     A.U. after   10 cycles
 SCF Done:  E(RB3LYP) =  -307.497974574     A.U. after    8 cycles
 Optimization completed.
    -- Stationary point found.
 Normal termination of Gaussian 16 at Mon Dec 17 12:46:12 2018.

 ------------------------------------------------------------------
 #P Geom=AllCheck Guess=TCheck SCRF=Check GenChk RB3LYP/ChkBas Freq
 ------------------------------------------------------------------

 Structure from the checkpoint file:  "fenol_b3lypd3_n07d_gas_of.chk"
 -------------------
 Title Card Required
 -------------------
 Charge =  0 Multiplicity = 1

                          Standard orientation:
 ---------------------------------------------------------------------
 Center     Atomic      Atomic             Coordinates (Angstroms)
 Number     Number       Type             X           Y           Z
 ---------------------------------------------------------------------
      1          6           0       -1.859599    0.025570   -0.000001
      2          6           0       -1.171481   -1.193244    0.000006
      3          6           0        0.223940   -1.224676   -0.000005
      4          6           0        0.940937   -0.022552    0.000007
      5          6           0        0.263417    1.203038    0.000009
      6          6           0       -1.134488    1.220526   -0.000008
      7          1           0       -2.945716    0.043286   -0.000005
      8          1           0       -1.724274   -2.129325   -0.000001
      9          1           0        0.771163   -2.162657   -0.000015
     10          1           0        0.825864    2.135189    0.000013
     11          1           0       -1.655157    2.174795   -0.000009
     12          8           0        2.307214   -0.110744    0.000002
     13          1           0        2.694060    0.772690   -0.000052
 ---------------------------------------------------------------------

 SCF Done:  E(RB3LYP) =  -307.497974574     A.U. after    1 cycles

 The electronic state is 1-A.
 Alpha  occ. eigenvalues --  -19.18653 -10.25254 -10.19571 -10.19383 -10.19307
 Alpha  occ. eigenvalues --  -10.18703 -10.18590  -1.07083  -0.85669  -0.75590
 Alpha  occ. eigenvalues --   -0.74519  -0.63193  -0.60937  -0.55190  -0.50455
 Alpha  occ. eigenvalues --   -0.47295  -0.44492  -0.43012  -0.41674  -0.39764
 Alpha  occ. eigenvalues --   -0.36847  -0.34776  -0.34400  -0.26160  -0.23277
 Alpha virt. eigenvalues --   -0.02006  -0.00470   0.01266   0.03110   0.04687
 Alpha virt. eigenvalues --    0.05352   0.06940   0.07262   0.09770   0.10031
 Alpha virt. eigenvalues --    0.10543   0.10958   0.13846   0.14255   0.15372

 Mulliken charges:
               1
     1  C   -0.108465
     2  C   -0.146319
     3  C   -0.093035
     4  C    0.491489
     5  C   -0.149211
     6  C   -0.159666
     7  H    0.100120
     8  H    0.104170
     9  H    0.109463
    10  H    0.087760
    11  H    0.103216
    12  O   -0.625646
    13  H    0.286123
 Sum of Mulliken charges =   0.00000

 Dipole moment (field-independent basis, Debye):
    X=             -0.0232    Y=              1.2849    Z=             -0.0001  Tot=              1.2851
 Quadrupole moment (field-independent basis, Debye-Ang):
   XX=            -38.1572   YY=            -36.1950   ZZ=            -45.5751
   XY=              4.3056   XZ=             -0.0002   YZ=             -0.0001

  Exact polarizability:  91.899   1.053  82.566   0.000   0.000  41.887
 Approx polarizability: 146.421   0.790 135.048   0.000   0.000  60.382

                      1                      2                      3
                      A                      A                      A
 Frequencies --    229.1160               330.5975               411.0214
 Red. masses --      4.2733                 1.1141                 3.9812
 Frc consts  --      0.1322                 0.0717                 0.3963
 IR Inten    --      1.2417               101.3893                 8.9838

                      4                      5                      6
                      A                      A                      A
 Frequencies --    420.8034               514.2172               533.9000
 Red. masses --      2.9641                 2.7109                 7.3133
 Frc consts  --      0.3092                 0.4223                 1.2282
 IR Inten    --      0.5299                13.5452                 1.7987

                      7                      8                      9
                      A                      A                      A
 Frequencies --    629.5371               695.8789               762.5131
 Red. masses --      6.4461                 2.0951                 1.6897
 Frc consts  --      1.5052                 0.5978                 0.5788
 IR Inten    --      0.3932                26.6267                59.9311

                     10                     11                     12
                      A                      A                      A
 Frequencies --    825.5785               827.8460               892.0308
 Red. masses --      1.2542                 5.7919                 1.4741
 Frc consts  --      0.5036                 2.3387                 0.6911
 IR Inten    --      0.0075                20.4912                 6.7806

                     13                     14                     15
                      A                      A                      A
 Frequencies --    966.7428               985.8762              1009.2559
 Red. masses --      1.3465                 1.2653                 6.0026
 Frc consts  --      0.7414                 0.7246                 3.6024
 IR Inten    --      0.0262                 0.1309                 1.6886

                     16                     17                     18
                      A                      A                      A
 Frequencies --   1043.8614              1096.3743              1183.5438
 Red. masses --      2.0733                 1.5521                 1.1685
 Frc consts  --      1.3311                 1.0992                 0.9643
 IR Inten    --      5.9590                12.8945                31.7624

                     19                     20                     21
                      A                      A                      A
 Frequencies --   1191.6710              1197.3129              1282.2305
 Red. masses --      1.1640                 1.1837                 3.6082
 Frc consts  --      0.9739                 0.9997                 3.4953
 IR Inten    --     25.7734                84.4759                96.1861

                     22                     23                     24
                      A                      A                      A
 Frequencies --   1357.7938              1369.8465              1501.4987
 Red. masses --      2.0941                 2.0083                 2.2898
 Frc consts  --      2.2746                 2.2204                 3.0415
 IR Inten    --      3.1355                28.6039                23.1708

                     25                     26                     27
                      A                      A                      A
 Frequencies --   1529.3191              1640.3896              1651.4091
 Red. masses --      2.3843                 5.8360                 5.6904
 Frc consts  --      3.2856                 9.2525                 9.1432
 IR Inten    --     57.6994                45.4704                45.4888

                     28                     29                     30
                      A                      A                      A
 Frequencies --   3167.3325              3184.4611              3193.0733
 Red. masses --      1.0888                 1.0871                 1.0918
 Frc consts  --      6.4356                 6.4953                 6.5588
 IR Inten    --     12.1628                 0.0818                15.7778

                     31                     32                     33
                      A                      A                      A
 Frequencies --   3206.8617              3213.3790              3833.3126
 Red. masses --      1.0943                 1.0967                 1.0665
 Frc consts  --      6.6303                 6.6718                 9.2332
 IR Inten    --     15.4969                 3.7046                63.7206

 - Thermochemistry -
 -------------------
 Temperature   298.150 Kelvin.  Pressure   1.00000 Atm.
 Atom     1 has atomic number  6 and mass  12.00000

 Molecular mass:    94.04186 amu.
 Principal axes and moments of inertia in atomic units:
                           1         2         3
     Eigenvalues --   320.45661 691.776011012.23262
           X            0.99980   0.02007   0.00000
           Y           -0.02007   0.99980   0.00000
           Z            0.00000   0.00000   1.00000
 This molecule is an asymmetric top.
 Rotational symmetry number  1.
 Rotational temperatures (Kelvin)      0.27028     0.12521     0.08557
 Rotational constants (GHZ):           5.63178     2.60885     1.78293
 Zero-point vibrational energy     274414.9 (Joules/Mol)
                                   65.58673 (Kcal/Mol)
 Warning -- explicit consideration of   6 degrees of freedom as
           vibrations may cause significant error
 Vibrational temperatures:    329.65   475.66   591.37   605.44   739.84
          (Kelvin)            768.16   905.76  1001.21  1097.09  1187.82
                             1191.09  1283.43  1390.93  1418.46  1452.09
                             1501.88  1577.44  1702.86  1714.55  1722.67
                             1844.84  1953.56  1970.90  2160.32  2200.35
                             2360.15  2376.01  4557.09  4581.73  4594.12
                             4613.96  4623.34  5515.28

 Zero-point correction=                           0.104519 (Hartree/Particle)
 Thermal correction to Energy=                    0.110069
 Thermal correction to Enthalpy=                  0.111013
 Thermal correction to Gibbs Free Energy=         0.075500
 Sum of electronic and zero-point Energies=           -307.393455
 Sum of electronic and thermal Energies=              -307.387906
 Sum of electronic and thermal Enthalpies=            -307.386961
 Sum of electronic and thermal Free Energies=         -307.422474

                     E (Thermal)             CV                S
                      KCal/Mol        Cal/Mol-Kelvin    Cal/Mol-Kelvin
 Total                   69.069             21.936             74.744
 Electronic               0.000              0.000              0.000
 Translational            0.889              2.981             39.535
 Rotational               0.889              2.981             26.909
 Vibrational             67.292             15.974              8.300
 Vibration     1          0.652              1.797              1.886
 Vibration     2          0.713              1.614              1.257
 Vibration     3          0.775              1.446              0.923
 Vibration     4          0.783              1.425              0.889
 Vibration     5          0.869              1.218              0.624
 Vibration     6          0.889              1.175              0.579

 Optimization completed.
    -- Stationary point found.
 Normal termination of Gaussian 16 at Mon Dec 17 12:49:24 2018.
