 Gaussian 16, Revision A.03,
 Gaussian 16:  ES64L-G16RevA.03 25-Dec-2016

 ----------------------------------------------------------------------
 #p opt freq b3lyp/gen scrf=(solvent=ccl4,pcm) geom=connectivity empiri
 caldispersion=gd3
 ----------------------------------------------------------------------

 -------------------
 Title Card Required
 -------------------
 Symbolic Z-matrix:
 Charge =  0 Multiplicity = 1

 SCF Done:  E(RB3LYP) =  -307.497079085     A.U. after   12 cycles
 SCF Done:  E(RB3LYP) =  -307.500307299     A.U. after   10 cycles
 SCF Done:  E(RB3LYP) =  -307.500564876     A.U. after   10 cycles
 SCF Done:  E(RB3LYP) =  -307.500577656     A.U. after    8 cycles
 Optimization completed.
    -- Stationary point found.
 Normal termination of Gaussian 16 at Fri Jan  4 11:03:45 2019.

 ------------------------------------------------------------------
 #P Geom=AllCheck Guess=TCheck SCRF=Check GenChk RB3LYP/ChkBas Freq
 ------------------------------------------------------------------

 Structure from the checkpoint file:  "fenol_b3lypd3_n07d_ccl4_of.chk"
 -------------------
 Title Card Required
 -------------------
 Charge =  0 Multiplicity = 1

                         Standard orientation:
 ---------------------------------------------------------------------
 Center     Atomic      Atomic             Coordinates (Angstroms)
 Number     Number       Type             X           Y           Z
 ---------------------------------------------------------------------
      1          6           0       -1.860127    0.026248   -0.000001
      2          6           0       -1.172700   -1.193283    0.000008
      3          6           0        0.223299   -1.224981   -0.000006
      4          6           0        0.941067   -0.022813    0.000009
      5          6           0        0.264406    1.203725    0.000011
      6          6           0       -1.133834    1.221169   -0.000010
      7          1           0       -2.946287    0.044629   -0.000007
      8          1           0       -1.725694   -2.129249   -0.000001
      9          1           0        0.768555   -2.164287   -0.000017
     10          1           0        0.827001    2.135417    0.000016
     11          1           0       -1.653924    2.175759   -0.000012
     12          8           0        2.307520   -0.111733    0.000001
     13          1           0        2.697529    0.771215   -0.000053
 ---------------------------------------------------------------------

 SCF Done:  E(RB3LYP) =  -307.500577656     A.U. after    1 cycles

 The electronic state is 1-A.
 Alpha  occ. eigenvalues --  -19.18656 -10.25313 -10.19562 -10.19417 -10.19266
 Alpha  occ. eigenvalues --  -10.18774 -10.18617  -1.07051  -0.85694  -0.75597
 Alpha  occ. eigenvalues --   -0.74533  -0.63158  -0.60936  -0.55145  -0.50412
 Alpha  occ. eigenvalues --   -0.47287  -0.44457  -0.42966  -0.41755  -0.39794
 Alpha  occ. eigenvalues --   -0.36817  -0.34753  -0.34488  -0.26235  -0.23367
 Alpha virt. eigenvalues --   -0.02071  -0.00561   0.01759   0.03378   0.04953
 Alpha virt. eigenvalues --    0.05575   0.07038   0.07079   0.09974   0.10014
 Alpha virt. eigenvalues --    0.10387   0.11034   0.13759   0.14361   0.15288

 Mulliken charges:
               1
     1  C   -0.116379
     2  C   -0.152524
     3  C   -0.099121
     4  C    0.467284
     5  C   -0.145343
     6  C   -0.162046
     7  H    0.106688
     8  H    0.111237
     9  H    0.113684
    10  H    0.100057
    11  H    0.110826
    12  O   -0.629820
    13  H    0.295456
 Sum of Mulliken charges =  -0.00000

 Dipole moment (field-independent basis, Debye):
    X=             -0.0139    Y=              1.4531    Z=             -0.0001  Tot=              1.4531
 Quadrupole moment (field-independent basis, Debye-Ang):
   XX=            -37.9302   YY=            -35.8583   ZZ=            -45.6565
   XY=              4.5837   XZ=             -0.0003   YZ=             -0.0001

  Exact polarizability: 105.344   1.030  94.855   0.000  -0.000  46.375
 Approx polarizability: 146.323   0.612 134.761   0.000  -0.000  60.725

                      1                      2                      3
                      A                      A                      A
 Frequencies --    225.4655               325.2706               405.0501
 Red. masses --      3.9570                 1.1394                 3.9253
 Frc consts  --      0.1185                 0.0710                 0.3794
 IR Inten    --      2.6906               116.6421                11.3762

                      4                      5                      6
                      A                      A                      A
 Frequencies --    419.7492               513.6751               532.9998
 Red. masses --      2.9400                 2.7034                 7.3106
 Frc consts  --      0.3052                 0.4203                 1.2236
 IR Inten    --      1.1863                17.3814                 2.4060

                      7                      8                      9
                      A                      A                      A
 Frequencies --    628.5980               694.5063               762.2544
 Red. masses --      6.4481                 2.0782                 1.7074
 Frc consts  --      1.5012                 0.5906                 0.5845
 IR Inten    --      0.5330                33.3064                71.4047

                     10                     11                     12
                      A                      A                      A
 Frequencies --    824.9094               826.2139               891.5723
 Red. masses --      1.2554                 5.7984                 1.4736
 Frc consts  --      0.5033                 2.3321                 0.6902
 IR Inten    --      0.0183                27.6193                 7.9344

                     13                     14                     15
                      A                      A                      A
 Frequencies --    968.4874               986.8283              1007.8139
 Red. masses --      1.3484                 1.2633                 5.9452
 Frc consts  --      0.7452                 0.7248                 3.5577
 IR Inten    --      0.0259                 0.1365                 2.3329

                     16                     17                     18
                      A                      A                      A
 Frequencies --   1042.0862              1093.5582              1182.0257
 Red. masses --      2.0867                 1.5507                 1.1633
 Frc consts  --      1.3351                 1.0926                 0.9576
 IR Inten    --      7.6876                19.3646                39.2036

                     19                     20                     21
                      A                      A                      A
 Frequencies --   1190.7052              1192.9884              1277.0397
 Red. masses --      1.1731                 1.1965                 3.5100
 Frc consts  --      0.9800                 1.0033                 3.3726
 IR Inten    --     32.2839               118.0452               120.1276

                     22                     23                     24
                      A                      A                      A
 Frequencies --   1355.9114              1367.6907              1499.5502
 Red. masses --      2.0253                 2.0846                 2.2830
 Frc consts  --      2.1938                 2.2975                 3.0246
 IR Inten    --      3.7667                30.8068                25.3858

                     25                     26                     27
                      A                      A                      A
 Frequencies --   1526.2662              1637.5270              1648.2837
 Red. masses --      2.3677                 5.8298                 5.6879
 Frc consts  --      3.2496                 9.2104                 9.1048
 IR Inten    --     77.0879                65.0061                48.9372

                     28                     29                     30
                      A                      A                      A
 Frequencies --   3169.8272              3185.1166              3193.5741
 Red. masses --      1.0893                 1.0872                 1.0918
 Frc consts  --      6.4485                 6.4986                 6.5608
 IR Inten    --     13.0830                 0.1538                18.2526

                     31                     32                     33
                      A                      A                      A
 Frequencies --   3206.0723              3212.4260              3822.3341
 Red. masses --      1.0939                 1.0973                 1.0666
 Frc consts  --      6.6251                 6.6716                 9.1816
 IR Inten    --     20.0938                 5.6284                88.4588

 - Thermochemistry -
 -------------------
 Temperature   298.150 Kelvin.  Pressure   1.00000 Atm.
 Atom     1 has atomic number  6 and mass  12.00000

 Molecular mass:    94.04186 amu.
 Principal axes and moments of inertia in atomic units:
                           1         2         3
     Eigenvalues --   320.67967 692.096001012.77567
           X            0.99980   0.02012  -0.00000
           Y           -0.02012   0.99980   0.00000
           Z            0.00000  -0.00000   1.00000
 This molecule is an asymmetric top.
 Rotational symmetry number  1.
 Rotational temperatures (Kelvin)      0.27009     0.12515     0.08552
 Rotational constants (GHZ):           5.62786     2.60765     1.78198
 Zero-point vibrational energy     274042.8 (Joules/Mol)
                                   65.49780 (Kcal/Mol)
 Warning -- explicit consideration of   6 degrees of freedom as
           vibrations may cause significant error
 Vibrational temperatures:    324.39   467.99   582.78   603.93   739.06
          (Kelvin)            766.87   904.41   999.24  1096.71  1186.86
                             1188.74  1282.77  1393.44  1419.83  1450.02
                             1499.33  1573.39  1700.67  1713.16  1716.44
                             1837.38  1950.85  1967.80  2157.52  2195.96
                             2356.04  2371.51  4560.67  4582.67  4594.84
                             4612.82  4621.96  5499.49

 Zero-point correction=                           0.104377 (Hartree/Particle)
 Thermal correction to Energy=                    0.109950
 Thermal correction to Enthalpy=                  0.110894
 Thermal correction to Gibbs Free Energy=         0.075336
 Sum of electronic and zero-point Energies=           -307.396200
 Sum of electronic and thermal Energies=              -307.390628
 Sum of electronic and thermal Enthalpies=            -307.389684
 Sum of electronic and thermal Free Energies=         -307.425241

                     E (Thermal)             CV                S
                      KCal/Mol        Cal/Mol-Kelvin    Cal/Mol-Kelvin
 Total                   68.994             21.994             74.837
 Electronic               0.000              0.000              0.000
 Translational            0.889              2.981             39.535
 Rotational               0.889              2.981             26.910
 Vibrational             67.217             16.032              8.392
 Vibration     1          0.650              1.802              1.915
 Vibration     2          0.709              1.625              1.283
 Vibration     3          0.770              1.459              0.944
 Vibration     4          0.782              1.427              0.893
 Vibration     5          0.869              1.220              0.625
 Vibration     6          0.888              1.177              0.581

 Optimization completed.
    -- Stationary point found.
 Normal termination of Gaussian 16 at Fri Jan  4 11:09:05 2019.
