 Gaussian 16, Revision A.03,
 Gaussian 16:  ES64L-G16RevA.03 25-Dec-2016

 ---------------------------------------
 #p opt freq b3lyp/gen geom=connectivity
 ---------------------------------------

 -----
 Title
 -----
 Symbolic Z-matrix:
 Charge =  0 Multiplicity = 1

 SCF Done:  E(RB3LYP) =  -693.185991407     A.U. after   13 cycles
 SCF Done:  E(RB3LYP) =  -693.394342194     A.U. after   13 cycles
 SCF Done:  E(RB3LYP) =  -693.403545531     A.U. after   12 cycles
 SCF Done:  E(RB3LYP) =  -693.406952159     A.U. after   11 cycles
 SCF Done:  E(RB3LYP) =  -693.407145892     A.U. after    9 cycles
 SCF Done:  E(RB3LYP) =  -693.407238589     A.U. after    9 cycles
 SCF Done:  E(RB3LYP) =  -693.407243381     A.U. after    8 cycles
 Optimization completed.
    -- Stationary point found.
 Normal termination of Gaussian 16 at Tue Dec  4 17:45:45 2018.

 ------------------------------------------------------------------
 #P Geom=AllCheck Guess=TCheck SCRF=Check GenChk RB3LYP/ChkBas Freq
 ------------------------------------------------------------------

 Structure from the checkpoint file:  "benzocfenantreno_b3lyp_n07t_gas_of.chk"
 -----
 Title
 -----
 Charge =  0 Multiplicity = 1

                         Standard orientation:
 ---------------------------------------------------------------------
 Center     Atomic      Atomic             Coordinates (Angstroms)
 Number     Number       Type             X           Y           Z
 ---------------------------------------------------------------------
      1          6           0        2.834057   -2.255896    0.000070
      2          6           0        3.969506   -1.440155    0.000012
      3          6           0        3.789116   -0.082554   -0.000032
      4          6           0        2.501742    0.496531   -0.000028
      5          6           0        1.318567   -0.316560    0.000009
      6          6           0        1.568623   -1.713143    0.000069
      7          6           0        0.000000    0.335705    0.000000
      8          6           0        0.000000    1.755270    0.000000
      9          6           0        1.205217    2.513186   -0.000028
     10          6           0        2.412883    1.912526   -0.000053
     11          6           0       -1.318567   -0.316560   -0.000009
     12          6           0       -2.501742    0.496531    0.000028
     13          6           0       -2.412883    1.912526    0.000052
     14          6           0       -1.205217    2.513186    0.000028
     15          6           0       -1.568623   -1.713143   -0.000069
     16          6           0       -3.789116   -0.082554    0.000031
     17          6           0       -3.969506   -1.440155   -0.000012
     18          6           0       -2.834057   -2.255896   -0.000070
     19          1           0       -1.124667    3.593267    0.000033
     20          1           0        1.124667    3.593267   -0.000034
     21          1           0       -3.327532    2.492780    0.000078
     22          1           0        2.940151   -3.333622    0.000119
     23          1           0        0.770263   -2.422587    0.000132
     24          1           0        4.962458   -1.870951    0.000011
     25          1           0        4.643010    0.584575   -0.000066
     26          1           0       -0.770263   -2.422587   -0.000132
     27          1           0       -2.940151   -3.333622   -0.000119
     28          1           0       -4.643010    0.584575    0.000064
     29          1           0       -4.962458   -1.870951   -0.000012
     30          1           0        3.327532    2.492780   -0.000079
 ---------------------------------------------------------------------

 SCF Done:  E(RB3LYP) =  -693.407243381     A.U. after    1 cycles

 The electronic state is 1-A.
 Alpha  occ. eigenvalues --  -10.20806 -10.20397 -10.20395 -10.19526 -10.19392
 Alpha  occ. eigenvalues --  -10.19392 -10.18368 -10.18368 -10.18309 -10.18309
 Alpha  occ. eigenvalues --  -10.18286 -10.18286 -10.18222 -10.18222 -10.18191
 Alpha  occ. eigenvalues --  -10.18190 -10.18169 -10.18169  -0.89341  -0.87087
 Alpha  occ. eigenvalues --   -0.84234  -0.80883  -0.79056  -0.76155  -0.75381
 Alpha  occ. eigenvalues --   -0.72786  -0.72326  -0.64875  -0.63922  -0.61762
 Alpha  occ. eigenvalues --   -0.60875  -0.59882  -0.54919  -0.52999  -0.52378
 Alpha  occ. eigenvalues --   -0.51614  -0.48403  -0.48363  -0.45733  -0.45520
 Alpha  occ. eigenvalues --   -0.44259  -0.43573  -0.42873  -0.41697  -0.41434
 Alpha  occ. eigenvalues --   -0.40535  -0.39780  -0.38545  -0.37425  -0.36988
 Alpha  occ. eigenvalues --   -0.35583  -0.35165  -0.33798  -0.32551  -0.31409
 Alpha  occ. eigenvalues --   -0.30540  -0.26695  -0.26153  -0.22609  -0.21944
 Alpha virt. eigenvalues --   -0.06435  -0.04812  -0.01622  -0.01599  -0.01143
 Alpha virt. eigenvalues --   -0.00487  -0.00468   0.00879   0.00902   0.01379
 Alpha virt. eigenvalues --    0.02258   0.02536   0.02797   0.03721   0.03753

 Mulliken charges:
               1
     1  C    0.264955
     2  C    0.159236
     3  C    0.075359
     4  C    0.391987
     5  C   -0.168507
     6  C    0.230694
     7  C   -0.266639
     8  C    0.395266
     9  C    0.211086
    10  C    0.145085
    11  C   -0.168507
    12  C    0.391987
    13  C    0.145085
    14  C    0.211086
    15  C    0.230694
    16  C    0.075359
    17  C    0.159236
    18  C    0.264955
    19  H   -0.204359
    20  H   -0.204359
    21  H   -0.202103
    22  H   -0.122230
    23  H   -0.492086
    24  H   -0.174458
    25  H   -0.178974
    26  H   -0.492086
    27  H   -0.122230
    28  H   -0.178974
    29  H   -0.174458
    30  H   -0.202103
 Sum of Mulliken charges =  -0.00000

 Dipole moment (field-independent basis, Debye):
    X=              0.0000    Y=              0.1375    Z=             -0.0000  Tot=              0.1375
 Quadrupole moment (field-independent basis, Debye-Ang):
   XX=            -91.4519   YY=            -92.0486   ZZ=           -112.2813
   XY=             -0.0000   XZ=             -0.0002   YZ=             -0.0000

  Exact polarizability: 329.504   0.000 252.400  -0.001   0.000 104.943
 Approx polarizability: 529.770  -0.000 469.550  -0.003  -0.000 177.978

 ******    1 imaginary frequencies (negative Signs) ******

                      1                      2                      3
                      A                      A                      A
 Frequencies --   -130.2514                58.8388               107.4248
 Red. masses --      3.0508                 4.0542                 4.2681
 Frc consts  --      0.0305                 0.0083                 0.0290
 IR Inten    --      0.0000                 0.1552                 0.0000

                      4                      5                      6
                      A                      A                      A
 Frequencies --    173.9022               214.8477               247.2066
 Red. masses --      4.4151                 5.2870                 3.8338
 Frc consts  --      0.0787                 0.1438                 0.1380
 IR Inten    --      3.2588                 0.3000                 0.0000

                      7                      8                      9
                      A                      A                      A
 Frequencies --    274.3072               293.8259               375.9354
 Red. masses --      3.9894                 4.9448                 6.3012
 Frc consts  --      0.1769                 0.2515                 0.5247
 IR Inten    --      2.2241                 2.9365                 0.6305

                     10                     11                     12
                      A                      A                      A
 Frequencies --    408.1840               412.4647               446.7802
 Red. masses --      2.7916                 3.0910                 5.5316
 Frc consts  --      0.2740                 0.3098                 0.6506
 IR Inten    --      0.0000                 4.9948                 2.4641

                     13                     14                     15
                      A                      A                      A
 Frequencies --    472.5645               513.5514               521.6099
 Red. masses --      3.1494                 4.7682                 3.1825
 Frc consts  --      0.4144                 0.7409                 0.5102
 IR Inten    --      0.0000                 0.0164                 9.0986

                     16                     17                     18
                      A                      A                      A
 Frequencies --    523.0498               553.3813               583.7317
 Red. masses --      7.3799                 6.3041                 3.1709
 Frc consts  --      1.1896                 1.1374                 0.6366
 IR Inten    --      0.1839                 0.4061                 0.0000

                     19                     20                     21
                      A                      A                      A
 Frequencies --    593.9744               632.8550               694.7149
 Red. masses --      2.8787                 7.0532                 3.0765
 Frc consts  --      0.5984                 1.6644                 0.8748
 IR Inten    --     15.3120                 7.5783                11.2580

                     22                     23                     24
                      A                      A                      A
 Frequencies --    694.7877               715.9294               717.0210
 Red. masses --      6.0856                 1.4631                 5.5960
 Frc consts  --      1.7308                 0.4418                 1.6951
 IR Inten    --      0.7542                 0.0000                 0.2923

                     25                     26                     27
                      A                      A                      A
 Frequencies --    762.8708               768.0390               778.6237
 Red. masses --      1.4283                 5.9304                 2.0206
 Frc consts  --      0.4898                 2.0611                 0.7218
 IR Inten    --     76.0175                 4.6290                 0.0000

                     28                     29                     30
                      A                      A                      A
 Frequencies --    802.5206               817.1978               822.7879
 Red. masses --      1.3186                 4.8151                 1.5676
 Frc consts  --      0.5004                 1.8946                 0.6253
 IR Inten    --      0.0000                 3.1571                 1.2962

                     31                     32                     33
                      A                      A                      A
 Frequencies --    865.0071               871.5549               874.0531
 Red. masses --      5.3198                 1.9908                 2.0793
 Frc consts  --      2.3452                 0.8910                 0.9359
 IR Inten    --      0.8555                61.9576                 0.0000

                     34                     35                     36
                      A                      A                      A
 Frequencies --    899.6121               960.6833               970.1934
 Red. masses --      2.6746                 1.3741                 5.8065
 Frc consts  --      1.2753                 0.7472                 3.2202
 IR Inten    --      5.0659                 0.0000                 0.3318

                     37                     38                     39
                      A                      A                      A
 Frequencies --    973.6866               986.9226               998.3869
 Red. masses --      1.3850                 1.3358                 1.3585
 Frc consts  --      0.7737                 0.7666                 0.7978
 IR Inten    --      1.8839                 0.0000                 0.0001

                     40                     41                     42
                      A                      A                      A
 Frequencies --   1002.3214              1005.9932              1006.9535
 Red. masses --      1.3429                 1.3416                 4.5438
 Frc consts  --      0.7949                 0.8000                 2.7145
 IR Inten    --      0.0000                 0.2966                 1.0760

                     43                     44                     45
                      A                      A                      A
 Frequencies --   1055.6236              1087.0388              1137.6168
 Red. masses --      2.2473                 2.5621                 2.8741
 Frc consts  --      1.4754                 1.7838                 2.1915
 IR Inten    --      9.6345                 2.5214                 0.7686

                     46                     47                     48
                      A                      A                      A
 Frequencies --   1155.9834              1160.0222              1184.7725
 Red. masses --      1.9598                 1.5988                 1.2169
 Frc consts  --      1.5430                 1.2676                 1.0064
 IR Inten    --      0.7729                 6.6071                 0.0461

                     49                     50                     51
                      A                      A                      A
 Frequencies --   1192.1185              1203.8608              1212.5617
 Red. masses --      1.1652                 1.3973                 1.7383
 Frc consts  --      0.9756                 1.1932                 1.5059
 IR Inten    --      1.1914                 6.6415                 0.0162

                     52                     53                     54
                      A                      A                      A
 Frequencies --   1232.2771              1243.8566              1259.3650
 Red. masses --      1.8363                 1.9765                 1.9236
 Frc consts  --      1.6429                 1.8017                 1.7975
 IR Inten    --      0.0779                 0.3087                 6.4116

                     55                     56                     57
                      A                      A                      A
 Frequencies --   1277.4168              1343.0633              1348.3962
 Red. masses --      1.6322                 4.8393                 1.8071
 Frc consts  --      1.5693                 5.1431                 1.9359
 IR Inten    --      0.5751                 0.6460                 0.0811

                     58                     59                     60
                      A                      A                      A
 Frequencies --   1360.3282              1363.3674              1394.3317
 Red. masses --      5.1488                 4.8966                 3.4805
 Frc consts  --      5.6136                 5.3626                 3.9868
 IR Inten    --      0.0803                 1.8240                 1.0593

                     61                     62                     63
                      A                      A                      A
 Frequencies --   1449.1171              1460.8627              1463.1273
 Red. masses --      2.5065                 1.9567                 1.7858
 Frc consts  --      3.1012                 2.4603                 2.2524
 IR Inten    --     15.4735                 0.4595                 0.5077

                     64                     65                     66
                      A                      A                      A
 Frequencies --   1503.4876              1544.1933              1550.3860
 Red. masses --      2.0938                 3.3001                 2.6336
 Frc consts  --      2.7886                 4.6364                 3.7298
 IR Inten    --      0.2202                 0.1647                 6.4938

                     67                     68                     69
                      A                      A                      A
 Frequencies --   1563.4244              1598.6210              1645.0259
 Red. masses --      3.8034                 5.3565                 5.8810
 Frc consts  --      5.4775                 8.0654                 9.3766
 IR Inten    --      7.4271                 2.7345                 6.2539

                     70                     71                     72
                      A                      A                      A
 Frequencies --   1654.8691              1655.0458              1684.0356
 Red. masses --      5.2052                 5.8079                 6.4256
 Frc consts  --      8.3987                 9.3732                10.7366
 IR Inten    --      1.4386                 2.0293                 0.5002

                     73                     74                     75
                      A                      A                      A
 Frequencies --   3159.7242              3161.1148              3162.9730
 Red. masses --      1.0862                 1.0867                 1.0864
 Frc consts  --      6.3893                 6.3982                 6.4038
 IR Inten    --      0.1599                 1.7755                 3.5749

                     76                     77                     78
                      A                      A                      A
 Frequencies --   3165.5186              3171.7701              3172.2709
 Red. masses --      1.0859                 1.0901                 1.0901
 Frc consts  --      6.4110                 6.4610                 6.4633
 IR Inten    --      0.5943                 4.1241                15.6425

                     79                     80                     81
                      A                      A                      A
 Frequencies --   3180.2010              3183.5282              3190.2765
 Red. masses --      1.0964                 1.0958                 1.0965
 Frc consts  --      6.5334                 6.5432                 6.5750
 IR Inten    --     11.2861                40.5676                42.1284

                     82                     83                     84
                      A                      A                      A
 Frequencies --   3190.5965              3306.1282              3374.4216
 Red. masses --      1.0965                 1.0923                 1.0788
 Frc consts  --      6.5766                 7.0343                 7.2376
 IR Inten    --      5.4469                 0.0347                 5.2035

 - Thermochemistry -
 -------------------
 Temperature   298.150 Kelvin.  Pressure   1.00000 Atm.
 Atom     1 has atomic number  6 and mass  12.00000

 Molecular mass:   228.09390 amu.
 Principal axes and moments of inertia in atomic units:
                           1         2         3
     Eigenvalues --  2174.930225276.845067451.77528
           X            1.00000  -0.00000  -0.00000
           Y            0.00000   1.00000  -0.00000
           Z            0.00000   0.00000   1.00000
 This molecule is an asymmetric top.
 Rotational symmetry number  1.
 Warning -- assumption of classical behavior for rotation
           may cause significant error
 Rotational temperatures (Kelvin)      0.03982     0.01641     0.01162
 Rotational constants (GHZ):           0.82979     0.34201     0.24219
    1 imaginary frequencies ignored.
 Zero-point vibrational energy     632830.6 (Joules/Mol)
                                  151.25015 (Kcal/Mol)
 Warning -- explicit consideration of  18 degrees of freedom as
           vibrations may cause significant error
 Vibrational temperatures:     84.66   154.56   250.21   309.12   355.68
          (Kelvin)            394.67   422.75   540.89   587.29   593.44
                              642.82   679.91   738.89   750.48   752.55
                              796.19   839.86   854.60   910.54   999.54
                              999.64  1030.06  1031.63  1097.60  1105.04
                             1120.27  1154.65  1175.77  1183.81  1244.55
                             1253.97  1257.57  1294.34  1382.21  1395.89
                             1400.92  1419.96  1436.46  1442.12  1447.40
                             1448.78  1518.81  1564.01  1636.78  1663.20
                             1669.01  1704.62  1715.19  1732.09  1744.61
                             1772.97  1789.63  1811.95  1837.92  1932.37
                             1940.04  1957.21  1961.58  2006.13  2084.96
                             2101.86  2105.11  2163.18  2221.75  2230.66
                             2249.42  2300.06  2366.83  2380.99  2381.24
                             2422.95  4546.14  4548.14  4550.81  4554.48
                             4563.47  4564.19  4575.60  4580.39  4590.10
                             4590.56  4756.78  4855.04

 Zero-point correction=                           0.241032 (Hartree/Particle)
 Thermal correction to Energy=                    0.252454
 Thermal correction to Enthalpy=                  0.253398
 Thermal correction to Gibbs Free Energy=         0.203598
 Sum of electronic and zero-point Energies=           -693.166211
 Sum of electronic and thermal Energies=              -693.154789
 Sum of electronic and thermal Enthalpies=            -693.153845
 Sum of electronic and thermal Free Energies=         -693.203645

                     E (Thermal)             CV                S
                      KCal/Mol        Cal/Mol-Kelvin    Cal/Mol-Kelvin
 Total                  158.417             50.377            104.813
 Electronic               0.000              0.000              0.000
 Translational            0.889              2.981             42.176
 Rotational               0.889              2.981             32.814
 Vibrational            156.640             44.415             29.823
 Vibration     1          0.596              1.974              4.496
 Vibration     2          0.606              1.943              3.315
 Vibration     3          0.627              1.875              2.393
 Vibration     4          0.645              1.818              2.002
 Vibration     5          0.661              1.767              1.750
 Vibration     6          0.677              1.721              1.569
 Vibration     7          0.689              1.685              1.452
 Vibration     8          0.747              1.521              1.055
 Vibration     9          0.773              1.452              0.933
 Vibration    10          0.776              1.443              0.918
 Vibration    11          0.806              1.368              0.806
 Vibration    12          0.829              1.311              0.730
 Vibration    13          0.869              1.220              0.625
 Vibration    14          0.877              1.202              0.606
 Vibration    15          0.878              1.199              0.603
 Vibration    16          0.909              1.132              0.537
 Vibration    17          0.941              1.067              0.478
 Vibration    18          0.952              1.045              0.460

 Optimization completed.
    -- Stationary point found.
 Normal termination of Gaussian 16 at Wed Dec  5 01:44:21 2018.
