 Gaussian 16, Revision A.03,
 Gaussian 16:  ES64L-G16RevA.03 25-Dec-2016

 ----------------------------------------------------------------------
 #p opt freq b3lyp/gen scrf=(solvent=ccl4,pcm) geom=connectivity empiri
 caldispersion=gd3
 ----------------------------------------------------------------------

 -----
 Title
 -----
 Symbolic Z-matrix:
 Charge =  0 Multiplicity = 1

 SCF Done:  E(RB3LYP) =  -1230.05642745     A.U. after   12 cycles
 SCF Done:  E(RB3LYP) =  -1230.05643816     A.U. after    9 cycles
 SCF Done:  E(RB3LYP) =  -1230.05645311     A.U. after    9 cycles
 SCF Done:  E(RB3LYP) =  -1230.05645144     A.U. after    9 cycles
 SCF Done:  E(RB3LYP) =  -1230.05645838     A.U. after    9 cycles
 SCF Done:  E(RB3LYP) =  -1230.05646416     A.U. after    8 cycles
 SCF Done:  E(RB3LYP) =  -1230.05646602     A.U. after    8 cycles
 SCF Done:  E(RB3LYP) =  -1230.05646635     A.U. after    7 cycles
 SCF Done:  E(RB3LYP) =  -1230.05646683     A.U. after    7 cycles
 SCF Done:  E(RB3LYP) =  -1230.05646708     A.U. after    7 cycles
 SCF Done:  E(RB3LYP) =  -1230.05646724     A.U. after    6 cycles
 SCF Done:  E(RB3LYP) =  -1230.05646733     A.U. after    6 cycles
 SCF Done:  E(RB3LYP) =  -1230.05646736     A.U. after    6 cycles
 Optimization completed.
    -- Stationary point found.
 Normal termination of Gaussian 16 at Thu Jun 20 23:12:57 2019.

 ------------------------------------------------------------------
 #P Geom=AllCheck Guess=TCheck SCRF=Check GenChk RB3LYP/ChkBas Freq
 ------------------------------------------------------------------

 Structure from the checkpoint file:  "tetrameroF_b3lypd3_n07d_ccl4_of.chk"
 -----
 Title
 -----
 Charge =  0 Multiplicity = 1

                         Standard orientation:
 ---------------------------------------------------------------------
 Center     Atomic      Atomic             Coordinates (Angstroms)
 Number     Number       Type             X           Y           Z
 ---------------------------------------------------------------------
      1          6           0        4.726132   -1.319949   -1.788702
      2          6           0        5.352013   -0.419877   -0.918701
      3          6           0        4.601732    0.607707   -0.337987
      4          6           0        3.237663    0.739506   -0.614223
      5          6           0        2.625941   -0.165302   -1.488998
      6          6           0        3.365670   -1.195804   -2.079190
      7          1           0        5.297877   -2.122757   -2.247283
      8          1           0        6.410866   -0.518478   -0.696432
      9          1           0        5.074634    1.312097    0.341692
     10          1           0        2.865969   -1.884595   -2.754817
     11          1           0        2.654926    1.531352   -0.151794
     12          8           0        1.283442   -0.109507   -1.778658
     13          1           0        0.872699    0.724486   -1.451478
     14          6           0       -0.618220   -4.197243    2.153647
     15          6           0        0.734636   -4.331514    2.486591
     16          6           0        1.695549   -3.634570    1.747622
     17          6           0        1.318104   -2.808485    0.684498
     18          6           0       -0.037616   -2.685627    0.362968
     19          6           0       -1.009566   -3.376923    1.093741
     20          1           0       -1.375399   -4.732785    2.720737
     21          1           0        1.035154   -4.970943    3.311913
     22          1           0        2.749702   -3.728243    1.996015
     23          1           0       -2.056500   -3.264001    0.825494
     24          6           0       -3.387009    0.118160   -0.360936
     25          6           0       -3.926190   -1.006870   -0.995175
     26          6           0       -5.275954   -1.005263   -1.359445
     27          6           0       -6.082874    0.106967   -1.099237
     28          6           0       -5.528112    1.226302   -0.467661
     29          6           0       -4.182246    1.237505   -0.095703
     30          1           0       -3.292509   -1.865102   -1.204213
     31          1           0       -5.694182   -1.879301   -1.852385
     32          1           0       -7.130789    0.102764   -1.385863
     33          1           0       -6.145245    2.097239   -0.261765
     34          1           0       -3.738551    2.098486    0.396910
     35          8           0       -2.069635    0.168383    0.023669
     36          1           0       -1.593534   -0.665635   -0.206032
     37          1           0        2.067513   -2.266978    0.114270
     38          8           0       -0.477818   -1.887929   -0.668936
     39          1           0        0.259528   -1.390369   -1.092792
     40          6           0        1.611836    4.650554    0.799707
     41          6           0        1.184371    4.530374    2.126937
     42          6           0        0.258227    3.537402    2.463146
     43          6           0       -0.237929    2.665558    1.489537
     44          6           0        0.196545    2.799653    0.165120
     45          6           0        1.119619    3.790805   -0.184969
     46          1           0        2.330305    5.418974    0.525594
     47          1           0        1.568236    5.202410    2.889394
     48          1           0       -0.079535    3.432697    3.491164
     49          1           0        1.438224    3.874215   -1.220364
     50          1           0       -0.948311    1.884311    1.746603
     51          8           0       -0.240791    1.958213   -0.829170
     52          1           0       -0.986598    1.398466   -0.505328
 ---------------------------------------------------------------------

 SCF Done:  E(RB3LYP) =  -1230.05646736     A.U. after    1 cycles

 The electronic state is 1-A.
 Alpha  occ. eigenvalues --  -19.19060 -19.18867 -19.18811 -19.18644 -10.25582
 Alpha  occ. eigenvalues --  -10.25541 -10.25491 -10.25485 -10.19750 -10.19739
 Alpha  occ. eigenvalues --  -10.19704 -10.19702 -10.19618 -10.19594 -10.19574
 Alpha  occ. eigenvalues --  -10.19571 -10.19268 -10.19235 -10.19231 -10.19216
 Alpha  occ. eigenvalues --  -10.19144 -10.19131 -10.19118 -10.19037 -10.18980
 Alpha  occ. eigenvalues --  -10.18926 -10.18808 -10.18788  -1.08344  -1.07115
 Alpha  occ. eigenvalues --   -1.07096  -1.05925  -0.86087  -0.85928  -0.85900
 Alpha  occ. eigenvalues --   -0.85802  -0.75921  -0.75802  -0.75768  -0.75717
 Alpha  occ. eigenvalues --   -0.75112  -0.74758  -0.74751  -0.74456  -0.63510
 Alpha  occ. eigenvalues --   -0.63450  -0.63374  -0.63299  -0.61548  -0.61234
 Alpha  occ. eigenvalues --   -0.61198  -0.60797  -0.55730  -0.55441  -0.55409
 Alpha  occ. eigenvalues --   -0.55233  -0.51360  -0.50840  -0.50753  -0.50552
 Alpha  occ. eigenvalues --   -0.47663  -0.47566  -0.47546  -0.47493  -0.44843
 Alpha  occ. eigenvalues --   -0.44784  -0.44748  -0.44614  -0.43955  -0.43607
 Alpha  occ. eigenvalues --   -0.43268  -0.43026  -0.42836  -0.42693  -0.42373
 Alpha  occ. eigenvalues --   -0.42146  -0.41083  -0.40013  -0.39842  -0.38774
 Alpha  occ. eigenvalues --   -0.37248  -0.37008  -0.36940  -0.36727  -0.35522
 Alpha  occ. eigenvalues --   -0.35348  -0.35198  -0.35008  -0.34743  -0.34509
 Alpha  occ. eigenvalues --   -0.34282  -0.33878  -0.26685  -0.26418  -0.26356
 Alpha  occ. eigenvalues --   -0.26242  -0.24124  -0.23927  -0.23860  -0.23704
 Alpha virt. eigenvalues --   -0.02868  -0.02303  -0.02221  -0.01862  -0.01165
 Alpha virt. eigenvalues --   -0.00923  -0.00870  -0.00778   0.01640   0.01839
 Alpha virt. eigenvalues --    0.02275   0.02593   0.03003   0.03390   0.03665

 Mulliken charges:
               1
     1  C   -0.174001
     2  C   -0.158336
     3  C   -0.140628
     4  C   -0.103227
     5  C    0.453114
     6  C   -0.060409
     7  H    0.114647
     8  H    0.110632
     9  H    0.114294
    10  H    0.108580
    11  H    0.099293
    12  O   -0.751611
    13  H    0.384310
    14  C   -0.170812
    15  C   -0.165595
    16  C   -0.161921
    17  C   -0.088031
    18  C    0.491755
    19  C   -0.040835
    20  H    0.113776
    21  H    0.109751
    22  H    0.113798
    23  H    0.100017
    24  C    0.483506
    25  C   -0.031542
    26  C   -0.156787
    27  C   -0.195733
    28  C   -0.186937
    29  C   -0.077254
    30  H    0.100798
    31  H    0.113706
    32  H    0.109628
    33  H    0.114286
    34  H    0.103163
    35  O   -0.776885
    36  H    0.409187
    37  H    0.093611
    38  O   -0.778300
    39  H    0.385008
    40  C   -0.184028
    41  C   -0.186534
    42  C   -0.154270
    43  C   -0.069932
    44  C    0.457955
    45  C   -0.062675
    46  H    0.114022
    47  H    0.110226
    48  H    0.114346
    49  H    0.108360
    50  H    0.108129
    51  O   -0.768861
    52  H    0.405246
 Sum of Mulliken charges =  -0.00000

 Dipole moment (field-independent basis, Debye):
    X=              0.7471    Y=             -0.1189    Z=              1.2692  Tot=              1.4776
 Quadrupole moment (field-independent basis, Debye-Ang):
   XX=           -151.1903   YY=           -160.1351   ZZ=           -167.4609
   XY=              2.2389   XZ=              1.6963   YZ=              3.5361

  Exact polarizability: 396.152  12.217 336.742  13.836  17.258 289.366
 Approx polarizability: 519.712  21.734 447.034  27.449  30.308 421.966

                      1                      2                      3
                      A                      A                      A
 Frequencies --      8.0933                12.5077                19.5732
 Red. masses --      5.9363                 5.3507                 4.3797
 Frc consts  --      0.0002                 0.0005                 0.0010
 IR Inten    --      0.0128                 0.2324                 0.1217

                      4                      5                      6
                      A                      A                      A
 Frequencies --     23.6220                26.4963                26.8015
 Red. masses --      4.7450                 4.5103                 4.5808
 Frc consts  --      0.0016                 0.0019                 0.0019
 IR Inten    --      0.0815                 0.0638                 0.3085

                      7                      8                      9
                      A                      A                      A
 Frequencies --     29.6427                41.9974                45.6328
 Red. masses --      4.0680                 4.7251                 5.3319
 Frc consts  --      0.0021                 0.0049                 0.0065
 IR Inten    --      0.0736                 0.3095                 0.1281

                     10                     11                     12
                      A                      A                      A
 Frequencies --     55.2196                60.9429                65.6493
 Red. masses --      5.8075                 4.5462                 6.1979
 Frc consts  --      0.0104                 0.0099                 0.0157
 IR Inten    --      0.3362                 0.1897                 0.6557

                     13                     14                     15
                      A                      A                      A
 Frequencies --     80.3484                85.5184               129.8880
 Red. masses --      5.7531                 5.7817                 6.2914
 Frc consts  --      0.0219                 0.0249                 0.0625
 IR Inten    --      0.3688                 0.4350                 1.0144

                     16                     17                     18
                      A                      A                      A
 Frequencies --    154.8913               158.4686               170.9433
 Red. masses --      5.6990                 5.8119                 5.2554
 Frc consts  --      0.0806                 0.0860                 0.0905
 IR Inten    --     28.2157                28.5507                 7.0136

                     19                     20                     21
                      A                      A                      A
 Frequencies --    252.7586               257.0688               258.1332
 Red. masses --      5.4601                 5.5932                 5.6772
 Frc consts  --      0.2055                 0.2178                 0.2229
 IR Inten    --      8.2230                10.7646                 3.8563

                     22                     23                     24
                      A                      A                      A
 Frequencies --    262.6784               419.6431               420.8615
 Red. masses --      5.7934                 2.9896                 2.9975
 Frc consts  --      0.2355                 0.3102                 0.3128
 IR Inten    --     10.9569                 0.1079                 0.1672

                     25                     26                     27
                      A                      A                      A
 Frequencies --    420.9559               423.0145               437.6160
 Red. masses --      2.9922                 3.0140                 4.3153
 Frc consts  --      0.3124                 0.3178                 0.4869
 IR Inten    --      0.2286                 0.1866                 1.7227

                     28                     29                     30
                      A                      A                      A
 Frequencies --    445.0288               450.7585               461.6578
 Red. masses --      4.3818                 4.5764                 4.5634
 Frc consts  --      0.5113                 0.5479                 0.5730
 IR Inten    --      5.1756                 5.3126                 5.5466

                     31                     32                     33
                      A                      A                      A
 Frequencies --    516.7928               517.4070               520.2878
 Red. masses --      2.7981                 2.8365                 2.8636
 Frc consts  --      0.4403                 0.4474                 0.4567
 IR Inten    --     11.3128                 7.0149                 4.8797

                     34                     35                     36
                      A                      A                      A
 Frequencies --    521.3161               537.0834               541.6843
 Red. masses --      2.8903                 7.2288                 6.9239
 Frc consts  --      0.4628                 1.2286                 1.1970
 IR Inten    --     14.6941                 5.8001                13.3080

                     37                     38                     39
                      A                      A                      A
 Frequencies --    542.6243               544.3201               628.4157
 Red. masses --      6.9082                 7.1454                 6.4177
 Frc consts  --      1.1984                 1.2473                 1.4932
 IR Inten    --     14.7996                 6.1388                 0.0644

                     40                     41                     42
                      A                      A                      A
 Frequencies --    629.2807               629.6830               630.4797
 Red. masses --      6.3049                 6.4353                 6.4342
 Frc consts  --      1.4710                 1.5034                 1.5069
 IR Inten    --      5.3794                 3.7064                 0.4141

                     43                     44                     45
                      A                      A                      A
 Frequencies --    675.4334               697.4812               699.4102
 Red. masses --      1.0841                 2.1845                 2.1736
 Frc consts  --      0.2914                 0.6261                 0.6265
 IR Inten    --     37.0763                19.1753                24.0674

                     46                     47                     48
                      A                      A                      A
 Frequencies --    700.6204               703.0058               762.4860
 Red. masses --      2.1205                 2.1105                 1.6205
 Frc consts  --      0.6133                 0.6145                 0.5551
 IR Inten    --     41.7822                22.1200                94.4264

                     49                     50                     51
                      A                      A                      A
 Frequencies --    763.3302               765.9497               767.1108
 Red. masses --      1.6165                 1.6358                 1.6708
 Frc consts  --      0.5550                 0.5654                 0.5793
 IR Inten    --     80.2496                32.5044               112.1551

                     52                     53                     54
                      A                      A                      A
 Frequencies --    801.7833               814.7020               826.6580
 Red. masses --      1.2809                 1.7255                 4.7512
 Frc consts  --      0.4852                 0.6748                 1.9130
 IR Inten    --    117.7335                42.8426                15.1086

                     55                     56                     57
                      A                      A                      A
 Frequencies --    828.3939               829.7252               830.8723
 Red. masses --      3.8083                 2.7698                 1.6604
 Frc consts  --      1.5398                 1.1235                 0.6754
 IR Inten    --     30.5242                29.5423                27.1976

                     58                     59                     60
                      A                      A                      A
 Frequencies --    835.0054               836.5770               844.6711
 Red. masses --      1.3646                 1.3682                 1.3486
 Frc consts  --      0.5606                 0.5642                 0.5669
 IR Inten    --      6.3180                20.0202                15.9272

                     61                     62                     63
                      A                      A                      A
 Frequencies --    854.4541               901.1608               903.9421
 Red. masses --      1.2839                 1.4266                 1.4553
 Frc consts  --      0.5523                 0.6826                 0.7006
 IR Inten    --     71.4656                 2.3478                12.9277

                     64                     65                     66
                      A                      A                      A
 Frequencies --    905.4486               908.3381               943.4893
 Red. masses --      1.4563                 1.4508                 1.1199
 Frc consts  --      0.7035                 0.7052                 0.5874
 IR Inten    --      9.4465                 5.6470                22.0786

                     67                     68                     69
                      A                      A                      A
 Frequencies --    974.1489               974.3240               976.1546
 Red. masses --      1.3499                 1.3461                 1.3494
 Frc consts  --      0.7548                 0.7529                 0.7576
 IR Inten    --      0.0272                 0.0827                 0.2647

                     70                     71                     72
                      A                      A                      A
 Frequencies --    977.8241               990.2170               990.5936
 Red. masses --      1.3451                 1.2637                 1.2631
 Frc consts  --      0.7577                 0.7301                 0.7303
 IR Inten    --      0.2808                 0.1581                 0.0478

                     73                     74                     75
                      A                      A                      A
 Frequencies --    991.7196               992.1931              1011.1381
 Red. masses --      1.2650                 1.2640                 6.1292
 Frc consts  --      0.7330                 0.7331                 3.6921
 IR Inten    --      0.5304                 0.0993                 1.1338

                     76                     77                     78
                      A                      A                      A
 Frequencies --   1011.2228              1011.6463              1011.9093
 Red. masses --      6.1470                 6.0292                 6.0554
 Frc consts  --      3.7035                 3.6355                 3.6532
 IR Inten    --      2.0917                 1.6626                 0.9152

                     79                     80                     81
                      A                      A                      A
 Frequencies --   1043.8583              1044.3422              1044.6911
 Red. masses --      2.0811                 2.0817                 2.0896
 Frc consts  --      1.3361                 1.3377                 1.3436
 IR Inten    --     12.3676                14.5649                 5.0631

                     82                     83                     84
                      A                      A                      A
 Frequencies --   1045.5901              1099.2300              1100.7217
 Red. masses --      2.1068                 1.5171                 1.5176
 Frc consts  --      1.3570                 1.0800                 1.0834
 IR Inten    --      8.6429                 8.6557                11.2048

                     85                     86                     87
                      A                      A                      A
 Frequencies --   1102.3311              1104.5678              1182.5814
 Red. masses --      1.5296                 1.5344                 1.1078
 Frc consts  --      1.0951                 1.1030                 0.9128
 IR Inten    --      7.2502                 8.4772                 2.7000

                     88                     89                     90
                      A                      A                      A
 Frequencies --   1182.9287              1183.4009              1183.6017
 Red. masses --      1.1072                 1.1064                 1.1032
 Frc consts  --      0.9129                 0.9129                 0.9106
 IR Inten    --      1.5249                 4.7016                 1.5026

                     91                     92                     93
                      A                      A                      A
 Frequencies --   1193.4688              1193.9180              1197.4783
 Red. masses --      1.1316                 1.1323                 1.1307
 Frc consts  --      0.9497                 0.9509                 0.9553
 IR Inten    --      9.7488                 5.9618                 9.9730

                     94                     95                     96
                      A                      A                      A
 Frequencies --   1198.9683              1240.6918              1253.2668
 Red. masses --      1.1309                 2.6390                 2.9958
 Frc consts  --      0.9579                 2.3934                 2.7724
 IR Inten    --     16.8261               196.8903               345.1653

                     97                     98                     99
                      A                      A                      A
 Frequencies --   1260.0253              1276.9420              1281.5412
 Red. masses --      3.1531                 3.3449                 1.9202
 Frc consts  --      2.9495                 3.2135                 1.8581
 IR Inten    --    627.2713                18.5863                 6.6294

                    100                    101                    102
                      A                      A                      A
 Frequencies --   1285.9809              1291.6524              1305.1893
 Red. masses --      1.7772                 1.8055                 1.8618
 Frc consts  --      1.7316                 1.7748                 1.8686
 IR Inten    --     18.8746                 5.6533                 7.2727

                    103                    104                    105
                      A                      A                      A
 Frequencies --   1357.8496              1358.6469              1359.1571
 Red. masses --      2.5153                 2.5670                 2.4952
 Frc consts  --      2.7324                 2.7919                 2.7157
 IR Inten    --      1.9500                 2.7036                 3.5836

                    106                    107                    108
                      A                      A                      A
 Frequencies --   1360.3220              1396.0513              1404.0245
 Red. masses --      2.5199                 1.4529                 1.4360
 Frc consts  --      2.7473                 1.6684                 1.6678
 IR Inten    --      2.2659                40.6659                91.3796

                    109                    110                    111
                      A                      A                      A
 Frequencies --   1410.6258              1437.7961              1504.4155
 Red. masses --      1.4265                 1.4876                 2.1894
 Frc consts  --      1.6724                 1.8118                 2.9195
 IR Inten    --    210.0733                15.5638                44.6767

                    112                    113                    114
                      A                      A                      A
 Frequencies --   1506.5922              1507.9684              1519.6318
 Red. masses --      2.1543                 2.1368                 1.9880
 Frc consts  --      2.8810                 2.8629                 2.7049
 IR Inten    --    112.5426               198.1329                19.4816

                    115                    116                    117
                      A                      A                      A
 Frequencies --   1529.7783              1531.4494              1532.4103
 Red. masses --      2.2166                 2.2114                 2.1881
 Frc consts  --      3.0563                 3.0558                 3.0273
 IR Inten    --     60.7583                35.9363                51.3574

                    118                    119                    120
                      A                      A                      A
 Frequencies --   1534.3612              1636.1042              1638.3481
 Red. masses --      2.1017                 5.7059                 5.6892
 Frc consts  --      2.9153                 8.9990                 8.9974
 IR Inten    --     21.9219                70.0554               112.6928

                    121                    122                    123
                      A                      A                      A
 Frequencies --   1638.7934              1645.8600              1650.7407
 Red. masses --      5.6386                 5.1777                 5.2072
 Frc consts  --      8.9221                 8.2637                 8.3601
 IR Inten    --    128.2269                20.2466                17.9502

                    124                    125                    126
                      A                      A                      A
 Frequencies --   1651.8554              1652.4311              1653.7909
 Red. masses --      5.1634                 5.1584                 5.0133
 Frc consts  --      8.3010                 8.2987                 8.0786
 IR Inten    --     47.5175                61.1066                16.6853

                    127                    128                    129
                      A                      A                      A
 Frequencies --   3181.5121              3182.1432              3182.7735
 Red. masses --      1.0860                 1.0860                 1.0860
 Frc consts  --      6.4766                 6.4792                 6.4815
 IR Inten    --      6.5089                 2.0189                 1.5467

                    130                    131                    132
                      A                      A                      A
 Frequencies --   3182.9821              3187.7088              3189.0013
 Red. masses --      1.0860                 1.0887                 1.0891
 Frc consts  --      6.4826                 6.5180                 6.5255
 IR Inten    --      1.7341                 4.4518                 8.5021

                    133                    134                    135
                      A                      A                      A
 Frequencies --   3189.9957              3190.0907              3196.8368
 Red. masses --      1.0891                 1.0891                 1.0922
 Frc consts  --      6.5296                 6.5303                 6.5764
 IR Inten    --     11.9617                11.3850                18.0223

                    136                    137                    138
                      A                      A                      A
 Frequencies --   3199.7844              3200.4910              3200.9562
 Red. masses --      1.0919                 1.0923                 1.0920
 Frc consts  --      6.5869                 6.5918                 6.5922
 IR Inten    --     11.7405                11.5425                29.6011

                    139                    140                    141
                      A                      A                      A
 Frequencies --   3202.1797              3204.3552              3205.6212
 Red. masses --      1.0948                 1.0948                 1.0944
 Frc consts  --      6.6143                 6.6231                 6.6262
 IR Inten    --     15.4773                12.8063                 1.2366

                    142                    143                    144
                      A                      A                      A
 Frequencies --   3206.9446              3210.4070              3210.7674
 Red. masses --      1.0943                 1.0982                 1.0983
 Frc consts  --      6.6306                 6.6692                 6.6707
 IR Inten    --      2.2993                15.0867                11.4682

                    145                    146                    147
                      A                      A                      A
 Frequencies --   3211.3170              3212.0497              3317.0767
 Red. masses --      1.0981                 1.0976                 1.0745
 Frc consts  --      6.6723                 6.6718                 6.9654
 IR Inten    --     16.3331                12.7391               293.6268

                    148                    149                    150
                      A                      A                      A
 Frequencies --   3391.7462              3409.0103              3451.5364
 Red. masses --      1.0704                 1.0708                 1.0689
 Frc consts  --      7.2551                 7.3320                 7.5029
 IR Inten    --   3159.2134              2402.7355               566.9466

 - Thermochemistry -
 -------------------
 Temperature   298.150 Kelvin.  Pressure   1.00000 Atm.
 Atom     1 has atomic number  6 and mass  12.00000

 Molecular mass:   376.16746 amu.
 Principal axes and moments of inertia in atomic units:
                           1         2         3
     Eigenvalues --  ******************************
           X            0.99999   0.00323   0.00241
           Y           -0.00324   0.99999   0.00297
           Z           -0.00240  -0.00298   0.99999
 This molecule is an asymmetric top.
 Rotational symmetry number  1.
 Warning -- assumption of classical behavior for rotation
           may cause significant error
 Rotational temperatures (Kelvin)      0.00801     0.00591     0.00420
 Rotational constants (GHZ):           0.16690     0.12324     0.08753
 Zero-point vibrational energy    1112600.0 (Joules/Mol)
                                  265.91777 (Kcal/Mol)
 Warning -- explicit consideration of  38 degrees of freedom as
           vibrations may cause significant error
 Vibrational temperatures:     11.64    18.00    28.16    33.99    38.12
          (Kelvin)             38.56    42.65    60.42    65.66    79.45
                               87.68    94.45   115.60   123.04   186.88
                              222.85   228.00   245.95   363.66   369.86
                              371.40   377.94   603.77   605.53   605.66
                              608.62   629.63   640.30   648.54   664.22
                              743.55   744.43   748.58   750.06   772.74
                              779.36   780.72   783.16   904.15   905.39
                              905.97   907.12   971.80  1003.52  1006.30
                             1008.04  1011.47  1097.05  1098.26  1102.03
                             1103.70  1153.59  1172.17  1189.38  1191.87
                             1193.79  1195.44  1201.39  1203.65  1215.29
                             1229.37  1296.57  1300.57  1302.74  1306.90
                             1357.47  1401.58  1401.83  1404.47  1406.87
                             1424.70  1425.24  1426.86  1427.54  1454.80
                             1454.92  1455.53  1455.91  1501.88  1502.58
                             1503.08  1504.37  1581.55  1583.69  1586.01
                             1589.23  1701.47  1701.97  1702.65  1702.94
                             1717.14  1717.78  1722.90  1725.05  1785.08
                             1803.17  1812.90  1837.23  1843.85  1850.24
                             1858.40  1877.88  1953.64  1954.79  1955.52
                             1957.20  2008.61  2020.08  2029.58  2068.67
                             2164.52  2167.65  2169.63  2186.41  2201.01
                             2203.41  2204.80  2207.60  2353.99  2357.22
                             2357.86  2368.03  2375.05  2376.65  2377.48
                             2379.44  4577.49  4578.39  4579.30  4579.60
                             4586.40  4588.26  4589.69  4589.83  4599.54
                             4603.78  4604.79  4605.46  4607.22  4610.35
                             4612.17  4614.08  4619.06  4619.58  4620.37
                             4621.42  4772.53  4879.97  4904.81  4965.99

 Zero-point correction=                           0.423767 (Hartree/Particle)
 Thermal correction to Energy=                    0.450351
 Thermal correction to Enthalpy=                  0.451295
 Thermal correction to Gibbs Free Energy=         0.358107
 Sum of electronic and zero-point Energies=          -1229.632700
 Sum of electronic and thermal Energies=             -1229.606116
 Sum of electronic and thermal Enthalpies=           -1229.605172
 Sum of electronic and thermal Free Energies=        -1229.698360

                     E (Thermal)             CV                S
                      KCal/Mol        Cal/Mol-Kelvin    Cal/Mol-Kelvin
 Total                  282.600            100.083            196.131
 Electronic               0.000              0.000              0.000
 Translational            0.889              2.981             43.667
 Rotational               0.889              2.981             36.433
 Vibrational            280.822             94.122            116.031
 Vibration     1          0.593              1.987              8.431
 Vibration     2          0.593              1.987              7.567
 Vibration     3          0.593              1.986              6.677
 Vibration     4          0.593              1.985              6.304
 Vibration     5          0.593              1.984              6.076
 Vibration     6          0.593              1.984              6.053
 Vibration     7          0.593              1.984              5.853
 Vibration     8          0.595              1.980              5.163
 Vibration     9          0.595              1.979              4.998
 Vibration    10          0.596              1.975              4.621
 Vibration    11          0.597              1.973              4.426
 Vibration    12          0.597              1.971              4.280
 Vibration    13          0.600              1.962              3.882
 Vibration    14          0.601              1.959              3.760
 Vibration    15          0.612              1.923              2.948
 Vibration    16          0.620              1.897              2.611
 Vibration    17          0.621              1.893              2.568
 Vibration    18          0.626              1.878              2.425
 Vibration    19          0.664              1.758              1.711
 Vibration    20          0.667              1.751              1.682
 Vibration    21          0.667              1.749              1.674
 Vibration    22          0.670              1.741              1.644
 Vibration    23          0.782              1.428              0.893
 Vibration    24          0.783              1.425              0.889
 Vibration    25          0.783              1.425              0.889
 Vibration    26          0.785              1.420              0.882
 Vibration    27          0.798              1.388              0.834
 Vibration    28          0.804              1.372              0.811
 Vibration    29          0.810              1.359              0.793
 Vibration    30          0.819              1.335              0.761
 Vibration    31          0.872              1.213              0.617
 Vibration    32          0.872              1.211              0.616
 Vibration    33          0.875              1.205              0.609
 Vibration    34          0.876              1.203              0.607
 Vibration    35          0.892              1.168              0.572
 Vibration    36          0.897              1.158              0.562
 Vibration    37          0.898              1.156              0.560
 Vibration    38          0.899              1.152              0.556

                           ! Non-Optimized Parameters !
 Normal termination of Gaussian 16 at Fri Jun 21 09:14:48 2019.
