 Gaussian 16, Revision A.03,
 Gaussian 16:  ES64L-G16RevA.03 25-Dec-2016

 ----------------------------------------------------------------------
 #p opt freq b3lyp/gen scrf=(solvent=ccl4,pcm) geom=connectivity empiri
 caldispersion=gd3
 ----------------------------------------------------------------------

 -----
 Title
 -----
 Symbolic Z-matrix:
 Charge =  0 Multiplicity = 1

 SCF Done:  E(RB3LYP) =  -1230.03606285     A.U. after   12 cycles
 SCF Done:  E(RB3LYP) =  -1230.05174488     A.U. after   11 cycles
 SCF Done:  E(RB3LYP) =  -1230.05114174     A.U. after   13 cycles
 SCF Done:  E(RB3LYP) =  -1230.05509699     A.U. after   11 cycles
 SCF Done:  E(RB3LYP) =  -1230.05693710     A.U. after   10 cycles
 SCF Done:  E(RB3LYP) =  -1230.05503912     A.U. after   11 cycles
 SCF Done:  E(RB3LYP) =  -1230.05744864     A.U. after   10 cycles
 SCF Done:  E(RB3LYP) =  -1230.05762523     A.U. after   10 cycles
 SCF Done:  E(RB3LYP) =  -1230.05776607     A.U. after   10 cycles
 SCF Done:  E(RB3LYP) =  -1230.05793731     A.U. after   10 cycles
 SCF Done:  E(RB3LYP) =  -1230.05809001     A.U. after    6 cycles
 SCF Done:  E(RB3LYP) =  -1230.05808972     A.U. after    6 cycles
 SCF Done:  E(RB3LYP) =  -1230.05808968     A.U. after    6 cycles
 SCF Done:  E(RB3LYP) =  -1230.05810184     A.U. after    9 cycles
 SCF Done:  E(RB3LYP) =  -1230.05808766     A.U. after    9 cycles
 SCF Done:  E(RB3LYP) =  -1230.05808747     A.U. after    7 cycles
 SCF Done:  E(RB3LYP) =  -1230.05808734     A.U. after    7 cycles
 SCF Done:  E(RB3LYP) =  -1230.05808779     A.U. after    8 cycles
 SCF Done:  E(RB3LYP) =  -1230.05808779     A.U. after    6 cycles
 Optimization completed.
    -- Stationary point found.
 Normal termination of Gaussian 16 at Thu Jun  6 18:05:40 2019.

 ------------------------------------------------------------------
 #P Geom=AllCheck Guess=TCheck SCRF=Check GenChk RB3LYP/ChkBas Freq
 ------------------------------------------------------------------

 Structure from the checkpoint file:  "tetrameroB_b3lypd3_n07d_ccl4_of.chk"
 -----
 Title
 -----
 Charge =  0 Multiplicity = 1

                         Standard orientation:
 ---------------------------------------------------------------------
 Center     Atomic      Atomic             Coordinates (Angstroms)
 Number     Number       Type             X           Y           Z
 ---------------------------------------------------------------------
      1          6           0       -5.038874    0.564312    0.102194
      2          6           0       -5.020271   -0.373344    1.141291
      3          6           0       -3.947866   -1.265237    1.241482
      4          6           0       -2.897282   -1.225104    0.319639
      5          6           0       -2.931185   -0.284913   -0.716286
      6          6           0       -3.999797    0.611155   -0.829369
      7          1           0       -5.866513    1.263379    0.012800
      8          1           0       -5.831437   -0.407985    1.863184
      9          1           0       -3.919585   -1.997659    2.044295
     10          1           0       -3.999987    1.332739   -1.641653
     11          6           0       -0.294649    2.869621   -0.587185
     12          6           0       -1.208536    2.731815    0.463736
     13          6           0       -1.259283    3.712283    1.459204
     14          6           0       -0.403326    4.817413    1.417626
     15          6           0        0.508231    4.940551    0.362670
     16          6           0        0.564656    3.972593   -0.642268
     17          1           0       -1.870427    1.871574    0.503662
     18          1           0       -1.971674    3.603396    2.273065
     19          1           0       -0.446009    5.573597    2.196525
     20          1           0        1.178663    5.795073    0.317629
     21          1           0        1.264941    4.055193   -1.468859
     22          8           0       -0.174242    1.929925   -1.583150
     23          1           0       -0.905593    1.269541   -1.557254
     24          1           0       -2.061843   -1.914070    0.405689
     25          8           0       -1.918273   -0.172825   -1.638744
     26          1           0       -1.275019   -0.916667   -1.574823
     27          6           0        5.039431   -0.563262    0.102756
     28          6           0        5.019578    0.374019    1.142190
     29          6           0        3.946382    1.264956    1.242230
     30          6           0        2.896300    1.224350    0.319822
     31          6           0        2.931457    0.284569   -0.716421
     32          6           0        4.000858   -0.610592   -0.829323
     33          1           0        5.867662   -1.261646    0.013527
     34          1           0        5.830350    0.409004    1.864507
     35          1           0        3.917089    1.997043    2.045311
     36          1           0        4.002013   -1.331851   -1.641897
     37          6           0        0.294894   -2.869864   -0.587461
     38          6           0       -0.565310   -3.972171   -0.641686
     39          6           0       -0.509180   -4.939754    0.363633
     40          6           0        0.402982   -4.816901    1.418098
     41          6           0        1.259855   -3.712449    1.458791
     42          6           0        1.209437   -2.732367    0.462923
     43          1           0       -1.266051   -4.054574   -1.467911
     44          1           0       -1.180313   -5.793759    0.319256
     45          1           0        0.445437   -5.572785    2.197301
     46          1           0        1.972732   -3.603799    2.272257
     47          1           0        1.872069   -1.872663    0.502155
     48          8           0        0.174786   -1.930507   -1.583820
     49          1           0        0.906256   -1.270261   -1.558075
     50          1           0        2.060265    1.912613    0.405750
     51          8           0        1.919024    0.172011   -1.639359
     52          1           0        1.275611    0.915668   -1.575558
 ---------------------------------------------------------------------

 SCF Done:  E(RB3LYP) =  -1230.05808779     A.U. after    1 cycles

 The electronic state is 1-A.
 Alpha  occ. eigenvalues --  -19.18867 -19.18866 -19.18826 -19.18825 -10.25582
 Alpha  occ. eigenvalues --  -10.25582 -10.25573 -10.25573 -10.19734 -10.19734
 Alpha  occ. eigenvalues --  -10.19729 -10.19728 -10.19724 -10.19723 -10.19722
 Alpha  occ. eigenvalues --  -10.19721 -10.19279 -10.19279 -10.19268 -10.19267
 Alpha  occ. eigenvalues --  -10.19191 -10.19190 -10.19188 -10.19187 -10.18976
 Alpha  occ. eigenvalues --  -10.18975 -10.18971 -10.18971  -1.08233  -1.07094
 Alpha  occ. eigenvalues --   -1.07055  -1.05954  -0.86155  -0.86017  -0.86008
 Alpha  occ. eigenvalues --   -0.85878  -0.75963  -0.75868  -0.75857  -0.75773
 Alpha  occ. eigenvalues --   -0.75231  -0.74857  -0.74847  -0.74496  -0.63523
 Alpha  occ. eigenvalues --   -0.63486  -0.63383  -0.63356  -0.61620  -0.61300
 Alpha  occ. eigenvalues --   -0.61284  -0.60859  -0.55754  -0.55481  -0.55444
 Alpha  occ. eigenvalues --   -0.55383  -0.51266  -0.50827  -0.50803  -0.50648
 Alpha  occ. eigenvalues --   -0.47672  -0.47643  -0.47618  -0.47523  -0.44825
 Alpha  occ. eigenvalues --   -0.44818  -0.44761  -0.44741  -0.44067  -0.43679
 Alpha  occ. eigenvalues --   -0.43641  -0.43621  -0.42781  -0.42536  -0.42469
 Alpha  occ. eigenvalues --   -0.42244  -0.40346  -0.39835  -0.39769  -0.38990
 Alpha  occ. eigenvalues --   -0.37227  -0.37003  -0.36991  -0.36836  -0.35501
 Alpha  occ. eigenvalues --   -0.35349  -0.35316  -0.35167  -0.34488  -0.34444
 Alpha  occ. eigenvalues --   -0.34414  -0.34147  -0.26885  -0.26533  -0.26481
 Alpha  occ. eigenvalues --   -0.26147  -0.24040  -0.24024  -0.23985  -0.23979
 Alpha virt. eigenvalues --   -0.03216  -0.02405  -0.02330  -0.01539  -0.01328
 Alpha virt. eigenvalues --   -0.00981  -0.00938  -0.00910   0.01570   0.01633
 Alpha virt. eigenvalues --    0.02293   0.02425   0.03404   0.03500   0.03503

 Mulliken charges:
               1
     1  C   -0.179248
     2  C   -0.158775
     3  C   -0.144957
     4  C   -0.091953
     5  C    0.447583
     6  C   -0.053136
     7  H    0.114199
     8  H    0.110572
     9  H    0.114318
    10  H    0.107870
    11  C    0.449336
    12  C   -0.085398
    13  C   -0.145959
    14  C   -0.163060
    15  C   -0.181870
    16  C   -0.055737
    17  H    0.097901
    18  H    0.114324
    19  H    0.110531
    20  H    0.114098
    21  H    0.108023
    22  O   -0.748360
    23  H    0.386777
    24  H    0.098575
    25  O   -0.750062
    26  H    0.384407
    27  C   -0.179291
    28  C   -0.158788
    29  C   -0.144888
    30  C   -0.091923
    31  C    0.447508
    32  C   -0.053149
    33  H    0.114206
    34  H    0.110575
    35  H    0.114325
    36  H    0.107889
    37  C    0.449509
    38  C   -0.055772
    39  C   -0.181805
    40  C   -0.163065
    41  C   -0.146085
    42  C   -0.085409
    43  H    0.108036
    44  H    0.114094
    45  H    0.110534
    46  H    0.114327
    47  H    0.097875
    48  O   -0.748398
    49  H    0.386771
    50  H    0.098564
    51  O   -0.749971
    52  H    0.384333
 Sum of Mulliken charges =  -0.00000

 Dipole moment (field-independent basis, Debye):
    X=              0.0004    Y=             -0.0002    Z=              2.7690  Tot=              2.7690
 Quadrupole moment (field-independent basis, Debye-Ang):
   XX=           -157.1980   YY=           -157.5329   ZZ=           -168.3600
   XY=              0.3506   XZ=             -0.0033   YZ=             -0.0062

  Exact polarizability: 355.867   2.272 352.997  -0.024  -0.017 301.618
 Approx polarizability: 461.453   3.639 462.030  -0.049  -0.025 469.804

                      1                      2                      3
                      A                      A                      A
 Frequencies --      5.7898                16.4409                17.2984
 Red. masses --      5.7622                 4.3258                 4.6932
 Frc consts  --      0.0001                 0.0007                 0.0008
 IR Inten    --      0.0005                 0.0979                 0.0296

                      4                      5                      6
                      A                      A                      A
 Frequencies --     17.6158                19.8701                36.7839
 Red. masses --      4.3818                 4.5555                 5.3779
 Frc consts  --      0.0008                 0.0011                 0.0043
 IR Inten    --      0.0884                 0.0242                 0.0002

                      7                      8                      9
                      A                      A                      A
 Frequencies --     42.0273                45.3424                50.4432
 Red. masses --      4.5199                 4.4725                 7.2889
 Frc consts  --      0.0047                 0.0054                 0.0109
 IR Inten    --      0.3392                 0.2646                 0.0017

                     10                     11                     12
                      A                      A                      A
 Frequencies --     60.1169                71.3298                74.0171
 Red. masses --      3.9986                 5.2908                 5.3110
 Frc consts  --      0.0085                 0.0159                 0.0171
 IR Inten    --      0.0362                 1.1049                 1.1174

                     13                     14                     15
                      A                      A                      A
 Frequencies --     82.1197                86.7889               126.3502
 Red. masses --      5.2453                 6.4193                 6.4527
 Frc consts  --      0.0208                 0.0285                 0.0607
 IR Inten    --      0.4095                 0.0016                 0.3611

                     16                     17                     18
                      A                      A                      A
 Frequencies --    155.0507               156.8987               168.6808
 Red. masses --      5.9505                 5.8676                 5.5578
 Frc consts  --      0.0843                 0.0851                 0.0932
 IR Inten    --     36.3069                34.4745                 0.0543

                     19                     20                     21
                      A                      A                      A
 Frequencies --    254.9319               258.6888               259.6720
 Red. masses --      5.4262                 5.6311                 5.6342
 Frc consts  --      0.2078                 0.2220                 0.2238
 IR Inten    --      0.2224                15.1452                16.4056

                     22                     23                     24
                      A                      A                      A
 Frequencies --    264.2296               419.8209               421.2966
 Red. masses --      5.8655                 2.9734                 2.9876
 Frc consts  --      0.2413                 0.3088                 0.3124
 IR Inten    --      0.0069                 0.0034                 0.7350

                     25                     26                     27
                      A                      A                      A
 Frequencies --    421.3967               422.9842               446.0433
 Red. masses --      2.9847                 2.9986                 4.4579
 Frc consts  --      0.3123                 0.3161                 0.5226
 IR Inten    --      0.5618                 0.1083                 3.4818

                     28                     29                     30
                      A                      A                      A
 Frequencies --    447.0578               448.9797               451.8120
 Red. masses --      4.5668                 4.5067                 4.4504
 Frc consts  --      0.5378                 0.5353                 0.5353
 IR Inten    --      0.0126                 4.0990                 8.1443

                     31                     32                     33
                      A                      A                      A
 Frequencies --    518.9519               519.5395               520.0430
 Red. masses --      2.8338                 2.8885                 2.8891
 Frc consts  --      0.4497                 0.4594                 0.4604
 IR Inten    --      0.0048                12.7100                13.4293

                     34                     35                     36
                      A                      A                      A
 Frequencies --    522.4108               538.7913               542.9303
 Red. masses --      2.8833                 7.4465                 6.9340
 Frc consts  --      0.4636                 1.2736                 1.2043
 IR Inten    --      6.2667                 0.0297                 8.9953

                     37                     38                     39
                      A                      A                      A
 Frequencies --    543.8641               544.2171               628.8949
 Red. masses --      6.9436                 6.9240                 6.4353
 Frc consts  --      1.2101                 1.2082                 1.4996
 IR Inten    --     12.0675                12.0087                 0.4652

                     40                     41                     42
                      A                      A                      A
 Frequencies --    629.4788               629.6788               630.0717
 Red. masses --      6.4222                 6.4277                 6.3231
 Frc consts  --      1.4993                 1.5016                 1.4790
 IR Inten    --      5.3671                 4.9943                 0.0013

                     43                     44                     45
                      A                      A                      A
 Frequencies --    645.3761               699.3903               699.9028
 Red. masses --      1.0481                 2.1091                 2.1412
 Frc consts  --      0.2572                 0.6078                 0.6180
 IR Inten    --      1.0579                28.1803                33.0802

                     46                     47                     48
                      A                      A                      A
 Frequencies --    700.3583               701.5640               759.2824
 Red. masses --      2.1446                 2.1291                 1.3531
 Frc consts  --      0.6198                 0.6174                 0.4596
 IR Inten    --     34.2649                 0.0365               234.0653

                     49                     50                     51
                      A                      A                      A
 Frequencies --    762.4835               766.5121               767.0158
 Red. masses --      1.4942                 1.6545                 1.6758
 Frc consts  --      0.5118                 0.5727                 0.5809
 IR Inten    --    204.3919                25.7400                62.0184

                     52                     53                     54
                      A                      A                      A
 Frequencies --    776.4135               782.8883               826.2090
 Red. masses --      1.2782                 1.2041                 4.6426
 Frc consts  --      0.4540                 0.4348                 1.8672
 IR Inten    --     17.1577                56.8610                 0.0163

                     55                     56                     57
                      A                      A                      A
 Frequencies --    828.7764               828.8807               829.4939
 Red. masses --      5.1597                 4.1028                 3.6454
 Frc consts  --      2.0881                 1.6608                 1.4778
 IR Inten    --     43.0422                30.3613                32.1391

                     58                     59                     60
                      A                      A                      A
 Frequencies --    832.7076               837.8888               838.7519
 Red. masses --      1.3218                 1.2612                 1.3253
 Frc consts  --      0.5400                 0.5217                 0.5493
 IR Inten    --      0.1115                 6.6393                 3.4898

                     61                     62                     63
                      A                      A                      A
 Frequencies --    839.4374               903.7970               904.7892
 Red. masses --      1.3486                 1.4613                 1.4572
 Frc consts  --      0.5599                 0.7033                 0.7029
 IR Inten    --      3.1564                 8.8034                 9.0437

                     64                     65                     66
                      A                      A                      A
 Frequencies --    905.4510               906.4562               926.2087
 Red. masses --      1.4545                 1.4474                 1.0896
 Frc consts  --      0.7026                 0.7007                 0.5507
 IR Inten    --      8.8129                 0.3891               178.3485

                     67                     68                     69
                      A                      A                      A
 Frequencies --    974.6131               975.5722               976.2082
 Red. masses --      1.3535                 1.3520                 1.3512
 Frc consts  --      0.7575                 0.7581                 0.7587
 IR Inten    --      0.0056                 0.6231                 0.5029

                     70                     71                     72
                      A                      A                      A
 Frequencies --    977.7289               991.4772               991.7025
 Red. masses --      1.3462                 1.2672                 1.2665
 Frc consts  --      0.7582                 0.7339                 0.7339
 IR Inten    --      0.5181                 0.4165                 0.3492

                     73                     74                     75
                      A                      A                      A
 Frequencies --    991.8571               992.0847              1011.4077
 Red. masses --      1.2658                 1.2648                 6.0448
 Frc consts  --      0.7337                 0.7335                 3.6432
 IR Inten    --      0.2904                 0.0025                 1.6911

                     76                     77                     78
                      A                      A                      A
 Frequencies --   1011.6934              1011.8698              1012.0774
 Red. masses --      6.0510                 6.0610                 6.0638
 Frc consts  --      3.6490                 3.6563                 3.6595
 IR Inten    --      1.3100                 1.7977                 0.0015

                     79                     80                     81
                      A                      A                      A
 Frequencies --   1044.1888              1044.5247              1044.6900
 Red. masses --      2.1084                 2.0976                 2.1002
 Frc consts  --      1.3545                 1.3484                 1.3505
 IR Inten    --      0.1655                12.1247                13.3544

                     82                     83                     84
                      A                      A                      A
 Frequencies --   1045.1929              1102.3617              1102.6082
 Red. masses --      2.0822                 1.5402                 1.5312
 Frc consts  --      1.3402                 1.1028                 1.0968
 IR Inten    --      6.0112                 0.0970                 9.8352

                     85                     86                     87
                      A                      A                      A
 Frequencies --   1102.9003              1103.1491              1182.8110
 Red. masses --      1.5327                 1.5233                 1.1081
 Frc consts  --      1.0984                 1.0922                 0.9134
 IR Inten    --     11.0732                 6.4382                 1.3315

                     88                     89                     90
                      A                      A                      A
 Frequencies --   1182.8448              1183.4114              1183.4310
 Red. masses --      1.1067                 1.1079                 1.1070
 Frc consts  --      0.9123                 0.9142                 0.9134
 IR Inten    --      1.8654                 1.9792                 2.2307

                     91                     92                     93
                      A                      A                      A
 Frequencies --   1197.6927              1197.7307              1197.9281
 Red. masses --      1.1317                 1.1303                 1.1314
 Frc consts  --      0.9565                 0.9554                 0.9566
 IR Inten    --     13.2091                 5.5136                12.3755

                     94                     95                     96
                      A                      A                      A
 Frequencies --   1197.9492              1236.5968              1254.2946
 Red. masses --      1.1310                 2.4307                 2.9804
 Frc consts  --      0.9563                 2.1900                 2.7626
 IR Inten    --     15.9534                 1.3349               370.9695

                     97                     98                     99
                      A                      A                      A
 Frequencies --   1256.0102              1279.1147              1280.2343
 Red. masses --      3.0920                 3.6646                 1.9583
 Frc consts  --      2.8740                 3.5326                 1.8911
 IR Inten    --    356.0212               116.3688                 0.8969

                    100                    101                    102
                      A                      A                      A
 Frequencies --   1289.7037              1290.7134              1305.4833
 Red. masses --      1.8303                 1.8245                 1.8404
 Frc consts  --      1.7937                 1.7908                 1.8480
 IR Inten    --      5.3350                 4.6178                18.1099

                    103                    104                    105
                      A                      A                      A
 Frequencies --   1358.6089              1358.9032              1359.3010
 Red. masses --      2.4160                 2.4905                 2.5049
 Frc consts  --      2.6275                 2.7096                 2.7269
 IR Inten    --      2.4669                 4.6541                 4.5691

                    106                    107                    108
                      A                      A                      A
 Frequencies --   1359.6695              1394.1647              1405.7399
 Red. masses --      2.5776                 1.4637                 1.4256
 Frc consts  --      2.8076                 1.6762                 1.6598
 IR Inten    --      0.0807                 0.2013               124.5259

                    109                    110                    111
                      A                      A                      A
 Frequencies --   1407.9382              1439.3056              1504.3370
 Red. masses --      1.4277                 1.4822                 2.1958
 Frc consts  --      1.6674                 1.8091                 2.9278
 IR Inten    --    116.8624                59.2452                 0.3699

                    112                    113                    114
                      A                      A                      A
 Frequencies --   1505.8975              1506.6201              1518.4500
 Red. masses --      2.1496                 2.1432                 1.9484
 Frc consts  --      2.8721                 2.8663                 2.6469
 IR Inten    --    124.4408               130.1110                85.2659

                    115                    116                    117
                      A                      A                      A
 Frequencies --   1530.5419              1532.2238              1532.6147
 Red. masses --      2.1938                 2.1895                 2.1841
 Frc consts  --      3.0278                 3.0286                 3.0227
 IR Inten    --      0.3737                36.3951                39.9934

                    118                    119                    120
                      A                      A                      A
 Frequencies --   1534.7183              1636.0416              1638.0115
 Red. masses --      2.1142                 5.6757                 5.6512
 Frc consts  --      2.9339                 8.9507                 8.9335
 IR Inten    --     43.0111                 0.2876                75.5847

                    121                    122                    123
                      A                      A                      A
 Frequencies --   1638.2520              1644.3935              1650.1854
 Red. masses --      5.6409                 5.1141                 5.2225
 Frc consts  --      8.9199                 8.1476                 8.3790
 IR Inten    --     87.6381                89.4313                 0.4176

                    124                    125                    126
                      A                      A                      A
 Frequencies --   1650.9467              1651.4020              1652.6391
 Red. masses --      5.1448                 5.1187                 5.2573
 Frc consts  --      8.2620                 8.2246                 8.4600
 IR Inten    --     51.3847                49.9914                34.3940

                    127                    128                    129
                      A                      A                      A
 Frequencies --   3183.1564              3183.2034              3183.2565
 Red. masses --      1.0860                 1.0860                 1.0860
 Frc consts  --      6.4833                 6.4837                 6.4838
 IR Inten    --      0.0099                 2.1005                 2.2054

                    130                    131                    132
                      A                      A                      A
 Frequencies --   3183.3427              3190.4622              3190.5708
 Red. masses --      1.0861                 1.0892                 1.0892
 Frc consts  --      6.4844                 6.5323                 6.5329
 IR Inten    --      0.7050                 4.1826                22.0312

                    133                    134                    135
                      A                      A                      A
 Frequencies --   3190.6258              3190.7563              3201.3984
 Red. masses --      1.0893                 1.0893                 1.0920
 Frc consts  --      6.5336                 6.5344                 6.5942
 IR Inten    --     21.9238                 0.0065                 0.5341

                    136                    137                    138
                      A                      A                      A
 Frequencies --   3201.6870              3201.9591              3202.2752
 Red. masses --      1.0921                 1.0923                 1.0924
 Frc consts  --      6.5960                 6.5982                 6.6000
 IR Inten    --     19.7584                18.7656                41.0526

                    139                    140                    141
                      A                      A                      A
 Frequencies --   3207.0447              3207.1953              3207.9116
 Red. masses --      1.0943                 1.0943                 1.0945
 Frc consts  --      6.6311                 6.6318                 6.6358
 IR Inten    --      0.2716                 1.0232                 5.0808

                    142                    143                    144
                      A                      A                      A
 Frequencies --   3208.2786              3211.6514              3212.1198
 Red. masses --      1.0943                 1.0980                 1.0978
 Frc consts  --      6.6363                 6.6726                 6.6738
 IR Inten    --      0.0083                 0.0437                23.5683

                    145                    146                    147
                      A                      A                      A
 Frequencies --   3212.5355              3212.9378              3347.2540
 Red. masses --      1.0974                 1.0974                 1.0740
 Frc consts  --      6.6726                 6.6743                 7.0899
 IR Inten    --     16.4573                 5.8427                 4.3257

                    148                    149                    150
                      A                      A                      A
 Frequencies --   3415.8396              3421.5787              3457.4415
 Red. masses --      1.0709                 1.0708                 1.0688
 Frc consts  --      7.3616                 7.3863                 7.5275
 IR Inten    --   2869.6069              2860.5016                 3.6610

 - Thermochemistry -
 -------------------
 Temperature   298.150 Kelvin.  Pressure   1.00000 Atm.
 Atom     1 has atomic number  6 and mass  12.00000

 Molecular mass:   376.16746 amu.
 Principal axes and moments of inertia in atomic units:
                           1         2         3
     Eigenvalues --  ******************************
           X            0.99999   0.00381  -0.00000
           Y           -0.00381   0.99999  -0.00000
           Z            0.00000   0.00000   1.00000
 This molecule is an asymmetric top.
 Rotational symmetry number  1.
 Warning -- assumption of classical behavior for rotation
           may cause significant error
 Rotational temperatures (Kelvin)      0.00778     0.00740     0.00441
 Rotational constants (GHZ):           0.16211     0.15429     0.09194
 Zero-point vibrational energy    1112814.4 (Joules/Mol)
                                  265.96901 (Kcal/Mol)
 Warning -- explicit consideration of  38 degrees of freedom as
           vibrations may cause significant error
 Vibrational temperatures:      8.33    23.65    24.89    25.35    28.59
          (Kelvin)             52.92    60.47    65.24    72.58    86.49
                              102.63   106.49   118.15   124.87   181.79
                              223.08   225.74   242.69   366.79   372.20
                              373.61   380.17   604.03   606.15   606.30
                              608.58   641.76   643.22   645.98   650.06
                              746.66   747.50   748.23   751.63   775.20
                              781.16   782.50   783.01   904.84   905.68
                              905.97   906.53   928.55  1006.27  1007.00
                             1007.66  1009.39  1092.44  1097.04  1102.84
                             1103.56  1117.09  1126.40  1188.73  1192.42
                             1192.57  1193.46  1198.08  1205.54  1206.78
                             1207.76  1300.36  1301.79  1302.74  1304.19
                             1332.61  1402.25  1403.63  1404.55  1406.73
                             1426.51  1426.84  1427.06  1427.39  1455.19
                             1455.60  1455.85  1456.15  1502.35  1502.84
                             1503.08  1503.80  1586.05  1586.41  1586.83
                             1587.19  1701.80  1701.85  1702.67  1702.69
                             1723.21  1723.27  1723.55  1723.58  1779.19
                             1804.65  1807.12  1840.36  1841.97  1855.60
                             1857.05  1878.30  1954.74  1955.16  1955.73
                             1956.26  2005.89  2022.55  2025.71  2070.84
                             2164.41  2166.65  2167.69  2184.71  2202.11
                             2204.53  2205.09  2208.12  2353.90  2356.73
                             2357.08  2365.92  2374.25  2375.34  2376.00
                             2377.78  4579.85  4579.92  4580.00  4580.12
                             4590.36  4590.52  4590.60  4590.79  4606.10
                             4606.51  4606.91  4607.36  4614.22  4614.44
                             4615.47  4616.00  4620.85  4621.52  4622.12
                             4622.70  4815.95  4914.63  4922.89  4974.49

 Zero-point correction=                           0.423849 (Hartree/Particle)
 Thermal correction to Energy=                    0.450378
 Thermal correction to Enthalpy=                  0.451322
 Thermal correction to Gibbs Free Energy=         0.358628
 Sum of electronic and zero-point Energies=          -1229.634239
 Sum of electronic and thermal Energies=             -1229.607710
 Sum of electronic and thermal Enthalpies=           -1229.606766
 Sum of electronic and thermal Free Energies=        -1229.699460

                     E (Thermal)             CV                S
                      KCal/Mol        Cal/Mol-Kelvin    Cal/Mol-Kelvin
 Total                  282.616            100.245            195.091
 Electronic               0.000              0.000              0.000
 Translational            0.889              2.981             43.667
 Rotational               0.889              2.981             36.190
 Vibrational            280.839             94.283            115.235
 Vibration     1          0.593              1.987              9.097
 Vibration     2          0.593              1.986              7.023
 Vibration     3          0.593              1.986              6.922
 Vibration     4          0.593              1.986              6.886
 Vibration     5          0.593              1.986              6.647
 Vibration     6          0.594              1.982              5.425
 Vibration     7          0.595              1.980              5.161
 Vibration     8          0.595              1.979              5.011
 Vibration     9          0.595              1.977              4.800
 Vibration    10          0.597              1.973              4.453
 Vibration    11          0.598              1.968              4.116
 Vibration    12          0.599              1.966              4.044
 Vibration    13          0.600              1.961              3.840
 Vibration    14          0.601              1.958              3.731
 Vibration    15          0.611              1.927              3.001
 Vibration    16          0.620              1.897              2.609
 Vibration    17          0.621              1.895              2.587
 Vibration    18          0.625              1.881              2.450
 Vibration    19          0.665              1.754              1.696
 Vibration    20          0.668              1.748              1.671
 Vibration    21          0.668              1.746              1.664
 Vibration    22          0.671              1.739              1.634
 Vibration    23          0.782              1.427              0.893
 Vibration    24          0.784              1.424              0.888
 Vibration    25          0.784              1.424              0.887
 Vibration    26          0.785              1.420              0.882
 Vibration    27          0.805              1.370              0.808
 Vibration    28          0.806              1.367              0.805
 Vibration    29          0.808              1.363              0.799
 Vibration    30          0.810              1.357              0.790
 Vibration    31          0.874              1.208              0.612
 Vibration    32          0.875              1.207              0.611
 Vibration    33          0.875              1.206              0.610
 Vibration    34          0.877              1.200              0.604
 Vibration    35          0.894              1.164              0.568
 Vibration    36          0.898              1.155              0.559
 Vibration    37          0.899              1.153              0.557
 Vibration    38          0.899              1.152              0.556

                           ! Non-Optimized Parameters !
 Normal termination of Gaussian 16 at Thu Jun  6 22:58:35 2019.
