 Gaussian 16, Revision A.03,
 Gaussian 16:  ES64L-G16RevA.03 25-Dec-2016

 ----------------------------------------------------------------------
 #p opt freq b3lyp/gen scrf=(solvent=ccl4,pcm) geom=connectivity empiri
 caldispersion=gd3
 ----------------------------------------------------------------------

 -------
 Título
 -------
 Symbolic Z-matrix:
 Charge =  0 Multiplicity = 1

 SCF Done:  E(RB3LYP) =  -922.535239343     A.U. after   12 cycles
 SCF Done:  E(RB3LYP) =  -922.535194357     A.U. after   17 cycles
 SCF Done:  E(RB3LYP) =  -922.535217091     A.U. after   12 cycles
 SCF Done:  E(RB3LYP) =  -922.535252253     A.U. after    8 cycles
 SCF Done:  E(RB3LYP) =  -922.535213199     A.U. after   33 cycles
 SCF Done:  E(RB3LYP) =  -922.535237634     A.U. after   19 cycles
 SCF Done:  E(RB3LYP) =  -922.535307221     A.U. after    9 cycles
 SCF Done:  E(RB3LYP) =  -922.535215435     A.U. after   12 cycles
 SCF Done:  E(RB3LYP) =  -922.535215298     A.U. after   20 cycles
 SCF Done:  E(RB3LYP) =  -922.535258273     A.U. after    8 cycles
 Optimization completed.
    -- Stationary point found.
 Normal termination of Gaussian 16 at Mon Mar 25 15:49:47 2019.

 ------------------------------------------------------------------
 #P Geom=AllCheck Guess=TCheck SCRF=Check GenChk RB3LYP/ChkBas Freq
 ------------------------------------------------------------------

 Structure from the checkpoint file:  "trimero_jaula_b3lypd3_n07d_ccl4_of_pcm.chk"
 -------
 Título
 -------
 Charge =  0 Multiplicity = 1

                         Standard orientation:
 ---------------------------------------------------------------------
 Center     Atomic      Atomic             Coordinates (Angstroms)
 Number     Number       Type             X           Y           Z
 ---------------------------------------------------------------------
      1          6           0       -3.835620    1.683535   -0.523386
      2          6           0       -3.096823    2.246690   -1.570198
      3          6           0       -1.717922    2.422774   -1.419085
      4          6           0       -1.074336    2.039919   -0.238797
      5          6           0       -1.825099    1.475971    0.798722
      6          6           0       -3.206180    1.297685    0.661936
      7          1           0       -4.908528    1.542863   -0.627240
      8          1           0       -3.589998    2.544538   -2.491235
      9          1           0       -1.130878    2.855951   -2.224830
     10          1           0       -3.765246    0.858948    1.483762
     11          1           0        0.000000    2.164384   -0.132145
     12          8           0       -1.251438    1.042983    1.970107
     13          1           0       -0.291085    1.222560    1.975679
     14          6           0        0.459826   -4.163512   -0.523386
     15          6           0       -0.397279   -3.805273   -1.570198
     16          6           0       -1.239222   -2.699151   -1.419085
     17          6           0       -1.229454   -1.950362   -0.238797
     18          6           0       -0.365679   -2.318568    0.798722
     19          6           0        0.479262   -3.425476    0.661936
     20          1           0        1.118106   -5.022341   -0.627240
     21          1           0       -0.408636   -4.381299   -2.491235
     22          1           0       -1.907887   -2.407345   -2.224830
     23          1           0        1.138752   -3.690273    1.483762
     24          6           0        2.190778    0.842597    0.798722
     25          6           0        2.303790   -0.089557   -0.238797
     26          6           0        2.957145    0.276378   -1.419085
     27          6           0        3.494102    1.558582   -1.570198
     28          6           0        3.375794    2.479977   -0.523386
     29          6           0        2.726918    2.127791    0.661936
     30          1           0        1.874411   -1.082192   -0.132145
     31          1           0        3.038765   -0.448606   -2.224830
     32          1           0        3.998634    1.836761   -2.491235
     33          1           0        3.790422    3.479479   -0.627240
     34          1           0        2.626494    2.831325    1.483762
     35          8           0        1.528968    0.562285    1.970107
     36          1           0        1.204311   -0.359193    1.975679
     37          1           0       -1.874411   -1.082192   -0.132145
     38          8           0       -0.277531   -1.605268    1.970107
     39          1           0       -0.913225   -0.863367    1.975679
 ---------------------------------------------------------------------

 SCF Done:  E(RB3LYP) =  -922.535258341     A.U. after    1 cycles

 Unable to determine electronic state:  an orbital has unidentified symmetry.
 Alpha  occ. eigenvalues --  -19.19093 -19.19091 -19.19087 -10.25608 -10.25607
 Alpha  occ. eigenvalues --  -10.25602 -10.19771 -10.19770 -10.19769 -10.19734
 Alpha  occ. eigenvalues --  -10.19733 -10.19731 -10.19290 -10.19287 -10.19285
 Alpha  occ. eigenvalues --  -10.19223 -10.19220 -10.19219 -10.18966 -10.18965
 Alpha  occ. eigenvalues --  -10.18964  -1.08287  -1.06892  -1.06889  -0.86171
 Alpha  occ. eigenvalues --   -0.85984  -0.85982  -0.75914  -0.75913  -0.75853
 Alpha  occ. eigenvalues --   -0.75202  -0.74726  -0.74725  -0.63672  -0.63377
 Alpha  occ. eigenvalues --   -0.63375  -0.61580  -0.61116  -0.61114  -0.55796
 Alpha  occ. eigenvalues --   -0.55279  -0.55277  -0.50838  -0.50837  -0.50799
 Alpha  occ. eigenvalues --   -0.47725  -0.47595  -0.47593  -0.44784  -0.44719
 Alpha  occ. eigenvalues --   -0.44717  -0.43915  -0.43606  -0.43604  -0.42614
 Alpha  occ. eigenvalues --   -0.42201  -0.42199  -0.40321  -0.40319  -0.39611
 Alpha  occ. eigenvalues --   -0.37186  -0.36956  -0.36955  -0.35395  -0.35222
 Alpha  occ. eigenvalues --   -0.35221  -0.34710  -0.34560  -0.34559  -0.26896
 Alpha  occ. eigenvalues --   -0.26366  -0.26364  -0.24326  -0.23769  -0.23768
 Alpha virt. eigenvalues --   -0.03104  -0.02096  -0.02095  -0.01008  -0.01007
 Alpha virt. eigenvalues --   -0.00982   0.01818   0.01818   0.01863   0.03643
 Alpha virt. eigenvalues --    0.03643   0.03893   0.03988   0.04971   0.04971

 Mulliken charges:
               1
     1  C   -0.170241
     2  C   -0.151422
     3  C   -0.151255
     4  C   -0.106194
     5  C    0.470122
     6  C   -0.069338
     7  H    0.114713
     8  H    0.110155
     9  H    0.113410
    10  H    0.112053
    11  H    0.097761
    12  O   -0.713080
    13  H    0.343316
    14  C   -0.170241
    15  C   -0.151422
    16  C   -0.151255
    17  C   -0.106194
    18  C    0.470122
    19  C   -0.069338
    20  H    0.114713
    21  H    0.110155
    22  H    0.113410
    23  H    0.112053
    24  C    0.470122
    25  C   -0.106194
    26  C   -0.151255
    27  C   -0.151422
    28  C   -0.170241
    29  C   -0.069338
    30  H    0.097761
    31  H    0.113410
    32  H    0.110155
    33  H    0.114713
    34  H    0.112053
    35  O   -0.713080
    36  H    0.343316
    37  H    0.097761
    38  O   -0.713080
    39  H    0.343316
 Sum of Mulliken charges =  -0.00000

 Dipole moment (field-independent basis, Debye):
    X=              0.0000    Y=              0.0000    Z=             -2.3917  Tot=              2.3917
 Quadrupole moment (field-independent basis, Debye-Ang):
   XX=           -121.5028   YY=           -121.5028   ZZ=           -124.6339
   XY=             -0.0000   XZ=             -0.0000   YZ=              0.0000

  Exact polarizability: 245.340   0.024 245.360   0.017  -0.001 255.162
 Approx polarizability: 324.339   0.002 324.340   0.001  -0.001 395.042

                      1                      2                      3
                      E                      E                      E
 Frequencies --     18.2547                20.2688                30.0555
 Red. masses --      4.9398                 5.1008                 5.1369
 Frc consts  --      0.0010                 0.0012                 0.0027
 IR Inten    --      0.2286                 0.2896                 0.0900

                      4                      5                      6
                      E                      E                      E
 Frequencies --     37.1992                40.7201                42.1361
 Red. masses --      4.3197                 4.1601                 4.0189
 Frc consts  --      0.0035                 0.0041                 0.0042
 IR Inten    --      0.0369                 0.0318                 0.0524

                      7                      8                      9
                      E                      E                      E
 Frequencies --     65.0080                66.1780                79.0926
 Red. masses --      5.3157                 5.3769                 5.1432
 Frc consts  --      0.0132                 0.0139                 0.0190
 IR Inten    --      1.5268                 1.3140                 0.2382

                     10                     11                     12
                      E                      E                      E
 Frequencies --    120.3268               120.5529               145.8533
 Red. masses --      6.5469                 6.5595                 6.3415
 Frc consts  --      0.0558                 0.0562                 0.0795
 IR Inten    --     19.8575                19.5905                 0.0365

                     13                     14                     15
                      E                      E                      E
 Frequencies --    245.5185               246.0076               256.7219
 Red. masses --      5.2271                 5.2486                 5.4115
 Frc consts  --      0.1856                 0.1872                 0.2101
 IR Inten    --      6.1212                 6.0381                 0.0331

                     16                     17                     18
                      E                      E                      E
 Frequencies --    419.3807               419.8659               420.9104
 Red. masses --      3.0423                 3.0381                 3.0143
 Frc consts  --      0.3153                 0.3156                 0.3146
 IR Inten    --      1.0484                 0.7830                 0.3535

                     19                     20                     21
                      E                      E                      E
 Frequencies --    430.1643               430.7925               441.9076
 Red. masses --      3.8917                 3.9366                 4.1933
 Frc consts  --      0.4243                 0.4304                 0.4825
 IR Inten    --      3.5366                 3.8110                13.0128

                     22                     23                     24
                      E                      E                      E
 Frequencies --    518.2181               518.6822               519.0829
 Red. masses --      2.7980                 2.7964                 2.7775
 Frc consts  --      0.4427                 0.4433                 0.4409
 IR Inten    --      1.5599                 1.8648                 2.6493

                     25                     26                     27
                      E                      E                      E
 Frequencies --    535.3424               535.7351               539.4879
 Red. masses --      5.6296                 5.8527                 7.0080
 Frc consts  --      0.9506                 0.9897                 1.2017
 IR Inten    --     11.4214                 9.8218                10.2704

                     28                     29                     30
                      E                      E                      E
 Frequencies --    579.9557               583.9216               628.6323
 Red. masses --      1.1518                 1.1371                 6.4107
 Frc consts  --      0.2283                 0.2284                 1.4926
 IR Inten    --    283.3042               286.9202                 1.1294

                     31                     32                     33
                      E                      E                      E
 Frequencies --    629.6616               629.7421               697.7641
 Red. masses --      6.2333                 6.2335                 2.1626
 Frc consts  --      1.4561                 1.4565                 0.6204
 IR Inten    --      0.6053                 0.4063                10.3977

                     34                     35                     36
                      E                      E                     ?A
 Frequencies --    700.6913               701.0028               765.6867
 Red. masses --      2.1204                 2.1300                 1.6686
 Frc consts  --      0.6134                 0.6167                 0.5764
 IR Inten    --     49.5093                48.2004                80.9530

                     37                     38                     39
                     ?A                     ?A                      E
 Frequencies --    765.7899               766.2440               820.9981
 Red. masses --      1.6663                 1.6546                 2.8722
 Frc consts  --      0.5757                 0.5724                 1.1406
 IR Inten    --     77.8078                34.4106               117.2260

                     40                     41                     42
                      E                      E                      E
 Frequencies --    825.8195               825.9587               834.1762
 Red. masses --      5.0245                 5.1982                 1.3181
 Frc consts  --      2.0189                 2.0894                 0.5404
 IR Inten    --     16.3932                15.9030                 0.0809

                     43                     44                     45
                      E                      E                      E
 Frequencies --    834.9943               835.7500               882.4057
 Red. masses --      1.2835                 1.4070                 1.1680
 Frc consts  --      0.5272                 0.5790                 0.5358
 IR Inten    --      0.0729                 0.4416               118.0819

                     46                     47                     48
                      E                      E                      E
 Frequencies --    902.8993               903.6996               904.1980
 Red. masses --      1.4616                 1.4521                 1.4507
 Frc consts  --      0.7020                 0.6987                 0.6988
 IR Inten    --      5.0014                 9.6124                10.4055

                     49                     50                     51
                     ?B                     ?B                     ?B
 Frequencies --    974.5864               974.9224               976.4890
 Red. masses --      1.3514                 1.3506                 1.3488
 Frc consts  --      0.7563                 0.7564                 0.7578
 IR Inten    --      0.1527                 0.1374                 0.2087

                     52                     53                     54
                     ?B                     ?B                     ?B
 Frequencies --    990.7438               991.0501               991.1967
 Red. masses --      1.2662                 1.2649                 1.2643
 Frc consts  --      0.7323                 0.7320                 0.7319
 IR Inten    --      0.3200                 0.4080                 0.4097

                     55                     56                     57
                     ?B                     ?B                     ?B
 Frequencies --   1010.7633              1011.4484              1011.5478
 Red. masses --      6.0174                 6.0310                 6.0362
 Frc consts  --      3.6221                 3.6352                 3.6390
 IR Inten    --      1.2079                 1.2615                 1.2352

                     58                     59                     60
                     ?B                     ?B                     ?B
 Frequencies --   1044.1919              1044.4616              1045.0466
 Red. masses --      2.1013                 2.1026                 2.0817
 Frc consts  --      1.3499                 1.3514                 1.3395
 IR Inten    --      5.8406                 5.9891                 8.1145

                     61                     62                     63
                     ?B                     ?B                     ?B
 Frequencies --   1100.8824              1101.3368              1102.4742
 Red. masses --      1.5416                 1.5435                 1.5294
 Frc consts  --      1.1008                 1.1030                 1.0953
 IR Inten    --     12.7841                12.3142                 1.9862

                     64                     65                     66
                     ?A                     ?A                     ?A
 Frequencies --   1182.4189              1182.5155              1182.7961
 Red. masses --      1.1108                 1.1110                 1.1050
 Frc consts  --      0.9150                 0.9153                 0.9108
 IR Inten    --      1.1681                 1.1800                 3.6670

                     67                     68                     69
                     ?B                     ?B                     ?B
 Frequencies --   1197.1378              1197.8848              1198.2876
 Red. masses --      1.1301                 1.1303                 1.1304
 Frc consts  --      0.9542                 0.9556                 0.9563
 IR Inten    --     10.4591                 9.5039                11.0662

                     70                     71                     72
                     ?B                     ?B                     ?C
 Frequencies --   1229.3020              1229.9242              1273.9437
 Red. masses --      1.7308                 1.7368                 2.4985
 Frc consts  --      1.5411                 1.5480                 2.3891
 IR Inten    --    139.4126               139.6400                27.1775

                     73                     74                     75
                     ?C                     ?C                     ?C
 Frequencies --   1274.0938              1278.5874              1281.3488
 Red. masses --      2.4889                 1.5467                 3.7717
 Frc consts  --      2.3805                 1.4898                 3.6485
 IR Inten    --     26.5355                57.5040               151.8190

                     76                     77                     78
                     ?C                     ?C                     ?C
 Frequencies --   1359.1680              1359.8030              1360.1410
 Red. masses --      2.4859                 2.5198                 2.5736
 Frc consts  --      2.7057                 2.7451                 2.8052
 IR Inten    --      2.3897                 3.0850                 3.1891

                     79                     80                     81
                     ?C                     ?C                     ?C
 Frequencies --   1382.4854              1383.2066              1405.5877
 Red. masses --      1.5623                 1.5406                 1.4604
 Frc consts  --      1.7593                 1.7367                 1.7000
 IR Inten    --     31.7632                31.8305                92.6847

                     82                     83                     84
                     ?C                     ?C                     ?C
 Frequencies --   1502.5482              1502.8252              1509.2344
 Red. masses --      2.2410                 2.2395                 2.1335
 Frc consts  --      2.9809                 2.9800                 2.8632
 IR Inten    --     40.4035                41.1055                58.1930

                     85                     86                     87
                     ?C                     ?C                     ?C
 Frequencies --   1529.7055              1530.2385              1532.7565
 Red. masses --      2.2526                 2.2446                 2.2984
 Frc consts  --      3.1056                 3.0967                 3.1814
 IR Inten    --     26.3640                25.9201                82.2192

                     88                     89                     90
                     ?D                     ?D                     ?D
 Frequencies --   1637.6556              1637.7528              1643.5060
 Red. masses --      5.7096                 5.7075                 5.4787
 Frc consts  --      9.0219                 9.0197                 8.7190
 IR Inten    --     31.1972                31.0959                91.3535

                     91                     92                     93
                     ?D                     ?D                     ?D
 Frequencies --   1650.3362              1650.4207              1652.6521
 Red. masses --      5.4213                 5.4138                 5.4645
 Frc consts  --      8.6995                 8.6884                 8.7935
 IR Inten    --     30.0961                30.0318                53.2144

                     94                     95                     96
                     ?E                     ?E                     ?E
 Frequencies --   3183.0688              3183.1649              3183.2868
 Red. masses --      1.0859                 1.0859                 1.0860
 Frc consts  --      6.4826                 6.4830                 6.4836
 IR Inten    --      0.3600                 0.5142                 1.2449

                     97                     98                     99
                     ?E                     ?E                     ?E
 Frequencies --   3190.0148              3190.0673              3190.2498
 Red. masses --      1.0889                 1.0889                 1.0889
 Frc consts  --      6.5286                 6.5286                 6.5293
 IR Inten    --     12.5057                13.5139                10.3871

                    100                    101                    102
                     ?E                     ?E                     ?E
 Frequencies --   3199.5403              3199.7543              3200.2689
 Red. masses --      1.0917                 1.0917                 1.0917
 Frc consts  --      6.5848                 6.5857                 6.5879
 IR Inten    --      1.4163                 3.9861                25.3652

                    103                    104                    105
                     ?E                     ?E                     ?E
 Frequencies --   3204.4174              3204.8632              3204.9537
 Red. masses --      1.0946                 1.0948                 1.0948
 Frc consts  --      6.6220                 6.6252                 6.6256
 IR Inten    --     12.0313                 5.6555                 5.8462

                    106                    107                    108
                     ?E                     ?E                     ?E
 Frequencies --   3211.1556              3211.3536              3211.7785
 Red. masses --      1.0983                 1.0983                 1.0983
 Frc consts  --      6.6724                 6.6732                 6.6750
 IR Inten    --     13.3506                13.6285                 7.8790

                    109                    110                    111
                     ?A                     ?A                     ?A
 Frequencies --   3559.3623              3605.7910              3606.0198
 Red. masses --      1.0700                 1.0677                 1.0678
 Frc consts  --      7.9866                 8.1794                 8.1804
 IR Inten    --     16.8554               945.7540               943.4999

 - Thermochemistry -
 -------------------
 Temperature   298.150 Kelvin.  Pressure   1.00000 Atm.
 Atom     1 has atomic number  6 and mass  12.00000

 Molecular mass:   282.12559 amu.
 Principal axes and moments of inertia in atomic units:
                           1         2         3
     Eigenvalues --  6352.905006352.905009481.43481
           X            0.49878   0.86673   0.00000
           Y            0.86673  -0.49878   0.00000
           Z           -0.00000  -0.00000   1.00000
 This molecule is an oblate symmetric top.
 Rotational symmetry number  3.
 Warning -- assumption of classical behavior for rotation
           may cause significant error
 Rotational temperatures (Kelvin)      0.01363     0.01363     0.00914
 Rotational constants (GHZ):           0.28408     0.28408     0.19034
 Zero-point vibrational energy     833390.3 (Joules/Mol)
                                  199.18505 (Kcal/Mol)
 Warning -- explicit consideration of  29 degrees of freedom as
           vibrations may cause significant error
 Vibrational temperatures:     26.26    29.16    43.24    53.52    58.59
          (Kelvin)             60.62    93.53    95.22   113.80   173.12
                              173.45   209.85   353.25   353.95   369.37
                              603.40   604.09   605.60   618.91   619.81
                              635.81   745.60   746.27   746.84   770.24
                              770.80   776.20   834.43   840.13   904.46
                              905.94   906.06  1003.93  1008.14  1008.59
                             1101.65  1101.80  1102.45  1181.23  1188.17
                             1188.37  1200.19  1201.37  1202.46  1269.58
                             1299.07  1300.22  1300.94  1402.21  1402.70
                             1404.95  1425.46  1425.90  1426.11  1454.26
                             1455.25  1455.39  1502.36  1502.75  1503.59
                             1583.92  1584.58  1586.21  1701.24  1701.38
                             1701.78  1722.41  1723.49  1724.07  1768.69
                             1769.59  1832.92  1833.14  1839.60  1843.58
                             1955.54  1956.45  1956.94  1989.09  1990.13
                             2022.33  2161.83  2162.23  2171.45  2200.90
                             2201.67  2205.29  2356.22  2356.36  2364.64
                             2374.47  2374.59  2377.80  4579.73  4579.86
                             4580.04  4589.72  4589.80  4590.06  4603.42
                             4603.73  4604.47  4610.44  4611.08  4611.21
                             4620.14  4620.42  4621.03  5121.13  5187.93
                             5188.26

 Zero-point correction=                           0.317422 (Hartree/Particle)
 Thermal correction to Energy=                    0.337121
 Thermal correction to Enthalpy=                  0.338065
 Thermal correction to Gibbs Free Energy=         0.265487
 Sum of electronic and zero-point Energies=           -922.217837
 Sum of electronic and thermal Energies=              -922.198137
 Sum of electronic and thermal Enthalpies=            -922.197193
 Sum of electronic and thermal Free Energies=         -922.269772

                     E (Thermal)             CV                S
                      KCal/Mol        Cal/Mol-Kelvin    Cal/Mol-Kelvin
 Total                  211.547             74.685            152.754
 Electronic               0.000              0.000              0.000
 Translational            0.889              2.981             42.810
 Rotational               0.889              2.981             32.120
 Vibrational            209.769             68.723             77.825
 Vibration     1          0.593              1.986              6.816
 Vibration     2          0.593              1.986              6.608
 Vibration     3          0.594              1.984              5.826
 Vibration     4          0.594              1.982              5.403
 Vibration     5          0.594              1.981              5.224
 Vibration     6          0.595              1.980              5.156
 Vibration     7          0.597              1.971              4.299
 Vibration     8          0.598              1.970              4.264
 Vibration     9          0.600              1.963              3.913
 Vibration    10          0.609              1.932              3.095
 Vibration    11          0.609              1.932              3.091
 Vibration    12          0.617              1.907              2.726
 Vibration    13          0.660              1.770              1.763
 Vibration    14          0.660              1.769              1.759
 Vibration    15          0.666              1.751              1.684
 Vibration    16          0.782              1.428              0.894
 Vibration    17          0.783              1.427              0.892
 Vibration    18          0.783              1.425              0.889
 Vibration    19          0.791              1.405              0.858
 Vibration    20          0.792              1.403              0.856
 Vibration    21          0.802              1.379              0.821
 Vibration    22          0.873              1.210              0.614
 Vibration    23          0.874              1.209              0.613
 Vibration    24          0.874              1.208              0.612
 Vibration    25          0.890              1.172              0.575
 Vibration    26          0.891              1.171              0.575
 Vibration    27          0.895              1.163              0.566
 Vibration    28          0.937              1.075              0.485
 Vibration    29          0.941              1.066              0.478

                           ! Non-Optimized Parameters !
 Normal termination of Gaussian 16 at Mon Mar 25 17:32:05 2019.
