 Gaussian 16, Revision A.03,
 Gaussian 16:  ES64L-G16RevA.03 25-Dec-2016

 ----------------------------------------------------------------------
 #p opt freq b3lyp/gen scrf=(solvent=ccl4,pcm) geom=connectivity empiri
 caldispersion=gd3
 ----------------------------------------------------------------------

 -----
 Title
 -----
 Symbolic Z-matrix:
 Charge =  0 Multiplicity = 1

 SCF Done:  E(RB3LYP) =  -922.531710907     A.U. after   12 cycles
 SCF Done:  E(RB3LYP) =  -922.531721227     A.U. after    8 cycles
 SCF Done:  E(RB3LYP) =  -922.531726828     A.U. after    8 cycles
 SCF Done:  E(RB3LYP) =  -922.531730550     A.U. after    8 cycles
 SCF Done:  E(RB3LYP) =  -922.531732889     A.U. after    8 cycles
 SCF Done:  E(RB3LYP) =  -922.531734196     A.U. after    7 cycles
 SCF Done:  E(RB3LYP) =  -922.531735474     A.U. after    8 cycles
 SCF Done:  E(RB3LYP) =  -922.531736836     A.U. after    8 cycles
 SCF Done:  E(RB3LYP) =  -922.531737818     A.U. after    7 cycles
 SCF Done:  E(RB3LYP) =  -922.531739503     A.U. after    8 cycles
 SCF Done:  E(RB3LYP) =  -922.531748013     A.U. after    8 cycles
 SCF Done:  E(RB3LYP) =  -922.531748217     A.U. after    7 cycles
 SCF Done:  E(RB3LYP) =  -922.531748721     A.U. after    7 cycles
 SCF Done:  E(RB3LYP) =  -922.531748909     A.U. after    7 cycles
 SCF Done:  E(RB3LYP) =  -922.531749041     A.U. after    7 cycles
 SCF Done:  E(RB3LYP) =  -922.531749203     A.U. after    7 cycles
 SCF Done:  E(RB3LYP) =  -922.531749419     A.U. after    7 cycles
 SCF Done:  E(RB3LYP) =  -922.531749540     A.U. after    7 cycles
 SCF Done:  E(RB3LYP) =  -922.531749627     A.U. after    6 cycles
 Optimization completed.
    -- Stationary point found.
 Normal termination of Gaussian 16 at Wed Jun  5 00:35:06 2019.

 ------------------------------------------------------------------
 #P Geom=AllCheck Guess=TCheck SCRF=Check GenChk RB3LYP/ChkBas Freq
 ------------------------------------------------------------------

 Structure from the checkpoint file:  "trimero_ciclo_b3lypd3_n07d_ccl4_of.chk"
 -----
 Title
 -----
 Charge =  0 Multiplicity = 1

                         Standard orientation:
 ---------------------------------------------------------------------
 Center     Atomic      Atomic             Coordinates (Angstroms)
 Number     Number       Type             X           Y           Z
 ---------------------------------------------------------------------
      1          6           0       -1.903187    3.874578    0.644097
      2          6           0       -3.204004    3.359114    0.680996
      3          6           0       -3.462351    2.105919    0.116993
      4          6           0       -2.436487    1.367675   -0.480290
      5          6           0       -1.142392    1.896552   -0.509412
      6          6           0       -0.868991    3.148400    0.049819
      7          1           0       -1.689624    4.847560    1.079271
      8          1           0       -4.005541    3.927071    1.144982
      9          1           0       -4.466675    1.691020    0.142973
     10          1           0        0.145384    3.535908    0.012197
     11          1           0       -2.636667    0.386794   -0.903750
     12          8           0       -0.083847    1.216108   -1.070830
     13          1           0       -0.370331    0.357862   -1.433116
     14          6           0        5.173815   -1.134756    0.646347
     15          6           0        5.757867   -0.040211   -0.002154
     16          6           0        4.940034    0.978361   -0.501493
     17          6           0        3.550984    0.910466   -0.358178
     18          6           0        2.981218   -0.189047    0.294009
     19          6           0        3.787976   -1.214498    0.797653
     20          1           0        5.799415   -1.932693    1.038418
     21          1           0        6.836658    0.017319   -0.116847
     22          1           0        5.380857    1.832779   -1.008875
     23          1           0        3.320792   -2.056681    1.300538
     24          6           0       -1.279212   -2.026148   -0.523825
     25          6           0       -1.335725   -1.996805    0.874795
     26          6           0       -2.526890   -2.342203    1.519205
     27          6           0       -3.656098   -2.712200    0.781539
     28          6           0       -3.584647   -2.739807   -0.616123
     29          6           0       -2.400165   -2.399673   -1.273468
     30          1           0       -0.461667   -1.689090    1.443136
     31          1           0       -2.570630   -2.313045    2.604983
     32          1           0       -4.579959   -2.975987    1.288667
     33          1           0       -4.454785   -3.027867   -1.200737
     34          1           0       -2.329195   -2.414536   -2.357586
     35          8           0       -0.153948   -1.651208   -1.216168
     36          1           0        0.577849   -1.468141   -0.593244
     37          1           0        2.911416    1.697275   -0.751513
     38          8           0        1.623412   -0.308483    0.461713
     39          1           0        1.157302    0.458805    0.069717
 ---------------------------------------------------------------------

 SCF Done:  E(RB3LYP) =  -922.531749627     A.U. after    1 cycles

 The electronic state is 1-A.
 Alpha  occ. eigenvalues --  -19.19522 -19.18920 -19.18672 -10.25623 -10.25492
 Alpha  occ. eigenvalues --  -10.25433 -10.19720 -10.19687 -10.19655 -10.19654
 Alpha  occ. eigenvalues --  -10.19628 -10.19594 -10.19298 -10.19250 -10.19206
 Alpha  occ. eigenvalues --  -10.19193 -10.19116 -10.19047 -10.18899 -10.18871
 Alpha  occ. eigenvalues --  -10.18810  -1.08336  -1.06979  -1.06618  -0.86047
 Alpha  occ. eigenvalues --   -0.85890  -0.85867  -0.75839  -0.75806  -0.75769
 Alpha  occ. eigenvalues --   -0.75035  -0.74668  -0.74623  -0.63684  -0.63362
 Alpha  occ. eigenvalues --   -0.63154  -0.61453  -0.61087  -0.61009  -0.55760
 Alpha  occ. eigenvalues --   -0.55298  -0.55097  -0.50944  -0.50738  -0.50602
 Alpha  occ. eigenvalues --   -0.47681  -0.47560  -0.47440  -0.44760  -0.44691
 Alpha  occ. eigenvalues --   -0.44656  -0.43611  -0.43289  -0.43079  -0.42782
 Alpha  occ. eigenvalues --   -0.42459  -0.42169  -0.40764  -0.40094  -0.39348
 Alpha  occ. eigenvalues --   -0.37178  -0.36934  -0.36832  -0.35459  -0.35202
 Alpha  occ. eigenvalues --   -0.35135  -0.34682  -0.34525  -0.34213  -0.26665
 Alpha  occ. eigenvalues --   -0.26383  -0.26227  -0.24206  -0.23715  -0.23611
 Alpha virt. eigenvalues --   -0.02668  -0.02230  -0.01975  -0.01018  -0.00890
 Alpha virt. eigenvalues --   -0.00811   0.01584   0.02081   0.02511   0.02799
 Alpha virt. eigenvalues --    0.03195   0.03858   0.04361   0.05009   0.05215

 Mulliken charges:
               1
     1  C   -0.158441
     2  C   -0.153957
     3  C   -0.165761
     4  C   -0.097385
     5  C    0.512647
     6  C   -0.063936
     7  H    0.113703
     8  H    0.109589
     9  H    0.112110
    10  H    0.107223
    11  H    0.094129
    12  O   -0.731121
    13  H    0.333177
    14  C   -0.176226
    15  C   -0.166720
    16  C   -0.148530
    17  C   -0.070487
    18  C    0.481287
    19  C   -0.087654
    20  H    0.114104
    21  H    0.109372
    22  H    0.113342
    23  H    0.108428
    24  C    0.484005
    25  C   -0.093008
    26  C   -0.154921
    27  C   -0.173001
    28  C   -0.171889
    29  C   -0.091705
    30  H    0.111841
    31  H    0.112601
    32  H    0.108934
    33  H    0.113827
    34  H    0.113206
    35  O   -0.726821
    36  H    0.357243
    37  H    0.106085
    38  O   -0.747065
    39  H    0.361777
 Sum of Mulliken charges =  -0.00000

 Dipole moment (field-independent basis, Debye):
    X=             -0.6223    Y=              0.5208    Z=              0.6278  Tot=              1.0260
 Quadrupole moment (field-independent basis, Debye-Ang):
   XX=           -111.0151   YY=           -122.9322   ZZ=           -126.7609
   XY=              2.5065   XZ=             -0.9930   YZ=             -0.8685

  Exact polarizability: 320.050  13.586 240.101 -13.873  -0.471 201.013
 Approx polarizability: 422.358  22.674 317.828 -23.753   0.078 299.207

                      1                      2                      3
                      A                      A                      A
 Frequencies --     13.9935                14.6391                23.7116
 Red. masses --      5.1733                 5.1447                 4.4276
 Frc consts  --      0.0006                 0.0006                 0.0015
 IR Inten    --      0.2601                 0.8093                 0.4988

                      4                      5                      6
                      A                      A                      A
 Frequencies --     24.6962                35.6276                39.3791
 Red. masses --      4.6887                 3.9508                 4.8274
 Frc consts  --      0.0017                 0.0030                 0.0044
 IR Inten    --      0.5557                 0.1265                 0.0700

                      7                      8                      9
                      A                      A                      A
 Frequencies --     50.8539                53.3130                72.7921
 Red. masses --      6.4646                 4.5400                 5.1674
 Frc consts  --      0.0099                 0.0076                 0.0161
 IR Inten    --      0.3893                 0.9678                 0.6034

                     10                     11                     12
                      A                      A                      A
 Frequencies --    112.3208               133.1196               143.8564
 Red. masses --      6.4802                 5.9490                 5.9294
 Frc consts  --      0.0482                 0.0621                 0.0723
 IR Inten    --     16.4565                14.8693                 2.2837

                     13                     14                     15
                      A                      A                      A
 Frequencies --    243.6910               247.5937               256.4212
 Red. masses --      4.9948                 5.4518                 5.6706
 Frc consts  --      0.1748                 0.1969                 0.2197
 IR Inten    --      5.1057                 6.6094                 0.9596

                     16                     17                     18
                      A                      A                      A
 Frequencies --    419.9102               420.1649               420.6372
 Red. masses --      3.0841                 3.0063                 3.0257
 Frc consts  --      0.3204                 0.3127                 0.3154
 IR Inten    --      0.7914                 0.0913                 0.5312

                     19                     20                     21
                      A                      A                      A
 Frequencies --    427.6561               428.3238               444.4806
 Red. masses --      3.9671                 3.8470                 4.4635
 Frc consts  --      0.4275                 0.4158                 0.5196
 IR Inten    --      3.4621                 1.7374                 6.6725

                     22                     23                     24
                      A                      A                      A
 Frequencies --    514.9299               516.0409               517.1849
 Red. masses --      2.5810                 2.8401                 2.7551
 Frc consts  --      0.4032                 0.4456                 0.4342
 IR Inten    --      6.4516                11.5262                10.9234

                     25                     26                     27
                      A                      A                      A
 Frequencies --    532.4190               535.6192               541.9577
 Red. masses --      4.4752                 7.0053                 6.8967
 Frc consts  --      0.7474                 1.1841                 1.1935
 IR Inten    --     44.7041                 3.6524                 6.5409

                     28                     29                     30
                      A                      A                      A
 Frequencies --    576.2488               628.3381               628.6098
 Red. masses --      1.2301                 5.9896                 5.5471
 Frc consts  --      0.2407                 1.3933                 1.2914
 IR Inten    --    276.2273                 6.6192                11.2057

                     31                     32                     33
                      A                      A                      A
 Frequencies --    629.6498               642.8071               697.1445
 Red. masses --      6.3538                 1.1309                 2.2099
 Frc consts  --      1.4842                 0.2753                 0.6328
 IR Inten    --      0.1398               216.1581                10.6908

                     34                     35                     36
                      A                      A                      A
 Frequencies --    698.1642               700.8999               762.7698
 Red. masses --      2.1474                 2.1045                 1.6283
 Frc consts  --      0.6167                 0.6091                 0.5582
 IR Inten    --     40.6793                54.5736                29.7766

                     37                     38                     39
                      A                      A                      A
 Frequencies --    764.6657               766.5710               819.7117
 Red. masses --      1.6508                 1.6709                 2.6773
 Frc consts  --      0.5687                 0.5785                 1.0599
 IR Inten    --    102.7173                67.5356                28.1804

                     40                     41                     42
                      A                      A                      A
 Frequencies --    826.2622               826.8117               831.1147
 Red. masses --      4.1242                 4.8650                 1.5974
 Frc consts  --      1.6589                 1.9595                 0.6501
 IR Inten    --     11.4779                71.4787                 1.7280

                     43                     44                     45
                      A                      A                      A
 Frequencies --    833.9954               836.4238               877.7149
 Red. masses --      1.2902                 1.2866                 1.2007
 Frc consts  --      0.5287                 0.5303                 0.5450
 IR Inten    --      1.0073                 0.2726                 7.9372

                     46                     47                     48
                      A                      A                      A
 Frequencies --    900.6824               903.7285               904.5058
 Red. masses --      1.4624                 1.4553                 1.4456
 Frc consts  --      0.6990                 0.7003                 0.6968
 IR Inten    --     10.4384                17.5099                 2.9080

                     49                     50                     51
                      A                      A                      A
 Frequencies --    972.4176               973.6949               975.2472
 Red. masses --      1.3497                 1.3503                 1.3501
 Frc consts  --      0.7519                 0.7543                 0.7565
 IR Inten    --      0.0511                 0.2504                 0.0246

                     52                     53                     54
                      A                      A                      A
 Frequencies --    989.4863               989.7605               990.5372
 Red. masses --      1.2643                 1.2633                 1.2644
 Frc consts  --      0.7293                 0.7292                 0.7310
 IR Inten    --      0.1021                 0.3346                 0.3787

                     55                     56                     57
                      A                      A                      A
 Frequencies --   1010.7065              1010.7435              1011.6816
 Red. masses --      6.1303                 6.1141                 6.0356
 Frc consts  --      3.6896                 3.6801                 3.6396
 IR Inten    --      3.1371                 0.5362                 1.0692

                     58                     59                     60
                      A                      A                      A
 Frequencies --   1043.6238              1043.8607              1044.3723
 Red. masses --      2.0734                 2.0870                 2.0769
 Frc consts  --      1.3305                 1.3398                 1.3347
 IR Inten    --     16.2636                 5.2547                 9.2103

                     61                     62                     63
                      A                      A                      A
 Frequencies --   1098.4627              1099.1975              1100.9847
 Red. masses --      1.5274                 1.5191                 1.5332
 Frc consts  --      1.0859                 1.0814                 1.0950
 IR Inten    --      8.9861                14.7652                 8.3073

                     64                     65                     66
                      A                      A                      A
 Frequencies --   1182.2613              1182.7301              1182.8833
 Red. masses --      1.1117                 1.1107                 1.1069
 Frc consts  --      0.9155                 0.9154                 0.9125
 IR Inten    --      1.7698                 9.6572                 0.4694

                     67                     68                     69
                      A                      A                      A
 Frequencies --   1193.0012              1194.0146              1196.5172
 Red. masses --      1.1296                 1.1307                 1.1301
 Frc consts  --      0.9472                 0.9497                 0.9532
 IR Inten    --      5.6256                 6.5459                17.5349

                     70                     71                     72
                      A                      A                      A
 Frequencies --   1224.2836              1248.2122              1264.2998
 Red. masses --      1.6888                 2.3060                 1.6626
 Frc consts  --      1.4914                 2.1168                 1.5658
 IR Inten    --    160.6400               733.7615                17.0196

                     73                     74                     75
                      A                      A                      A
 Frequencies --   1271.8381              1278.0301              1283.6444
 Red. masses --      2.2356                 3.1403                 2.1405
 Frc consts  --      2.1306                 3.0221                 2.0781
 IR Inten    --     44.1392                11.9525                24.6924

                     76                     77                     78
                      A                      A                      A
 Frequencies --   1358.0522              1358.3612              1359.0318
 Red. masses --      2.5632                 2.5488                 2.5008
 Frc consts  --      2.7852                 2.7708                 2.7214
 IR Inten    --      1.5818                 1.8484                 3.8628

                     79                     80                     81
                      A                      A                      A
 Frequencies --   1378.9949              1396.5743              1399.9046
 Red. masses --      1.5984                 1.4962                 1.4759
 Frc consts  --      1.7908                 1.7194                 1.7042
 IR Inten    --     40.3398               109.3324                87.2349

                     82                     83                     84
                      A                      A                      A
 Frequencies --   1501.6473              1505.1545              1507.8061
 Red. masses --      2.2504                 2.1949                 2.1686
 Frc consts  --      2.9898                 2.9297                 2.9048
 IR Inten    --     36.1316               183.2312                 4.3147

                     85                     86                     87
                      A                      A                      A
 Frequencies --   1528.6139              1530.5761              1530.9702
 Red. masses --      2.2735                 2.2485                 2.3003
 Frc consts  --      3.1300                 3.1035                 3.1766
 IR Inten    --     26.1017                65.2916                59.5974

                     88                     89                     90
                      A                      A                      A
 Frequencies --   1637.4448              1637.7769              1643.5787
 Red. masses --      5.7140                 5.7504                 5.5474
 Frc consts  --      9.0266                 9.0879                 8.8293
 IR Inten    --     52.2159               182.0253                15.0825

                     91                     92                     93
                      A                      A                      A
 Frequencies --   1650.6104              1651.9762              1652.4756
 Red. masses --      5.4842                 5.4793                 5.2403
 Frc consts  --      8.8034                 8.8102                 8.4309
 IR Inten    --     35.8975                16.0219                54.2486

                     94                     95                     96
                      A                      A                      A
 Frequencies --   3180.3320              3182.0534              3182.8511
 Red. masses --      1.0866                 1.0860                 1.0859
 Frc consts  --      6.4753                 6.4787                 6.4817
 IR Inten    --      6.9555                 1.6846                 1.7788

                     97                     98                     99
                      A                      A                      A
 Frequencies --   3186.4197              3188.4451              3189.2458
 Red. masses --      1.0885                 1.0889                 1.0887
 Frc consts  --      6.5114                 6.5221                 6.5244
 IR Inten    --      1.7986                 7.1634                 8.4911

                    100                    101                    102
                      A                      A                      A
 Frequencies --   3194.9449              3197.8891              3198.1697
 Red. masses --      1.0925                 1.0920                 1.0922
 Frc consts  --      6.5703                 6.5798                 6.5821
 IR Inten    --     15.6354                 7.9190                12.1115

                    103                    104                    105
                      A                      A                      A
 Frequencies --   3203.1750              3203.5535              3203.6578
 Red. masses --      1.0942                 1.0946                 1.0948
 Frc consts  --      6.6144                 6.6187                 6.6203
 IR Inten    --     18.0012                16.9286                15.6167

                    106                    107                    108
                      A                      A                      A
 Frequencies --   3210.7282              3210.8183              3211.1156
 Red. masses --      1.0982                 1.0981                 1.0983
 Frc consts  --      6.6704                 6.6701                 6.6724
 IR Inten    --     11.5779                10.6312                10.5106

                    109                    110                    111
                      A                      A                      A
 Frequencies --   3519.4208              3569.0910              3646.8033
 Red. masses --      1.0702                 1.0678                 1.0677
 Frc consts  --      7.8102                 8.0142                 8.3660
 IR Inten    --    366.4931              1605.8793               561.7342

 - Thermochemistry -
 -------------------
 Temperature   298.150 Kelvin.  Pressure   1.00000 Atm.
 Atom     1 has atomic number  6 and mass  12.00000

 Molecular mass:   282.12559 amu.
 Principal axes and moments of inertia in atomic units:
                           1         2         3
     Eigenvalues --  4896.39533********************
           X            0.99999   0.00271  -0.00199
           Y           -0.00271   1.00000  -0.00071
           Z            0.00199   0.00072   1.00000
 This molecule is an asymmetric top.
 Rotational symmetry number  1.
 Warning -- assumption of classical behavior for rotation
           may cause significant error
 Rotational temperatures (Kelvin)      0.01769     0.00865     0.00636
 Rotational constants (GHZ):           0.36859     0.18027     0.13246
 Zero-point vibrational energy     832642.2 (Joules/Mol)
                                  199.00627 (Kcal/Mol)
 Warning -- explicit consideration of  28 degrees of freedom as
           vibrations may cause significant error
 Vibrational temperatures:     20.13    21.06    34.12    35.53    51.26
          (Kelvin)             56.66    73.17    76.71   104.73   161.60
                              191.53   206.98   350.62   356.23   368.93
                              604.16   604.52   605.20   615.30   616.26
                              639.51   740.87   742.47   744.11   766.03
                              770.64   779.76   829.09   904.04   904.43
                              905.93   924.86  1003.04  1004.50  1008.44
                             1097.46  1100.18  1102.92  1179.38  1188.81
                             1189.60  1195.79  1199.93  1203.43  1262.84
                             1295.88  1300.26  1301.38  1399.09  1400.93
                             1403.16  1423.65  1424.04  1425.16  1454.18
                             1454.23  1455.58  1501.54  1501.88  1502.62
                             1580.44  1581.50  1584.07  1701.01  1701.68
                             1701.91  1716.46  1717.92  1721.52  1761.47
                             1795.90  1819.05  1829.89  1838.80  1846.88
                             1953.93  1954.38  1955.34  1984.07  2009.36
                             2014.15  2160.54  2165.58  2169.40  2199.33
                             2202.16  2202.72  2355.92  2356.40  2364.74
                             2374.86  2376.83  2377.54  4575.79  4578.27
                             4579.41  4584.55  4587.46  4588.61  4596.81
                             4601.05  4601.45  4608.65  4609.20  4609.35
                             4619.52  4619.65  4620.08  5063.66  5135.13
                             5246.94

 Zero-point correction=                           0.317137 (Hartree/Particle)
 Thermal correction to Energy=                    0.336967
 Thermal correction to Enthalpy=                  0.337911
 Thermal correction to Gibbs Free Energy=         0.262197
 Sum of electronic and zero-point Energies=           -922.214613
 Sum of electronic and thermal Energies=              -922.194783
 Sum of electronic and thermal Enthalpies=            -922.193839
 Sum of electronic and thermal Free Energies=         -922.269552

                     E (Thermal)             CV                S
                      KCal/Mol        Cal/Mol-Kelvin    Cal/Mol-Kelvin
 Total                  211.450             74.665            159.353
 Electronic               0.000              0.000              0.000
 Translational            0.889              2.981             42.810
 Rotational               0.889              2.981             34.856
 Vibrational            209.672             68.703             81.687
 Vibration     1          0.593              1.986              7.344
 Vibration     2          0.593              1.986              7.254
 Vibration     3          0.593              1.985              6.296
 Vibration     4          0.593              1.985              6.215
 Vibration     5          0.594              1.982              5.488
 Vibration     6          0.594              1.981              5.290
 Vibration     7          0.595              1.977              4.784
 Vibration     8          0.596              1.976              4.691
 Vibration     9          0.599              1.967              4.076
 Vibration    10          0.607              1.939              3.228
 Vibration    11          0.613              1.920              2.900
 Vibration    12          0.616              1.909              2.752
 Vibration    13          0.659              1.773              1.776
 Vibration    14          0.661              1.767              1.748
 Vibration    15          0.666              1.752              1.686
 Vibration    16          0.783              1.427              0.892
 Vibration    17          0.783              1.426              0.891
 Vibration    18          0.783              1.425              0.890
 Vibration    19          0.789              1.410              0.866
 Vibration    20          0.790              1.409              0.864
 Vibration    21          0.804              1.373              0.813
 Vibration    22          0.870              1.217              0.622
 Vibration    23          0.871              1.214              0.619
 Vibration    24          0.872              1.212              0.617
 Vibration    25          0.887              1.178              0.582
 Vibration    26          0.891              1.171              0.575
 Vibration    27          0.897              1.157              0.561
 Vibration    28          0.933              1.083              0.492

                           ! Non-Optimized Parameters !
 Normal termination of Gaussian 16 at Wed Jun  5 03:31:09 2019.
